TITLE="DynamicStudio Exported Data"
VARIABLES= "X (m)[m]" "Y (m)[m]" "Z (m)[m]" "Status[-]" "U[m/s]" "V[m/s]" "W[m/s]" "Length[m/s]" "dU/dX[1/s]" "dU/dY[1/s]" "dU/dZ[1/s]" "dV/dX[1/s]" "dV/dY[1/s]" "dV/dZ[1/s]" "dW/dX[1/s]" "dW/dY[1/s]" "dW/dZ[1/s]" "Vorticity X[1/s]" "Vorticity Y[1/s]" "Vorticity Z[1/s]" "Vorticity Magnitude[1/s]" "Lambda-2[1/s²]" "Q-Criterion[1/s²]"
ZONE T="DynamicStudio Data" I=26 J=26 F=POINT
-0.0350500006899238 0.0600499968752265 0.00564999974519014 16 -0.445650826493899 -0.0377459066807448 0.500018621005584 0.670856194708055 7.53852127210325 -30.8263935640542 1.72544251625904 30.0792334125534 3.79142818150475 1.99908914275842 -2.27278873110929 16.7507315254561 9.30181686674555 14.7516423826976 3.99823124736833 60.9056269766076 62.7940459240213 -885.078943392574 1031.64052498662
-0.0322500006482005 0.0600499968752265 0.00564999974519014 16 -0.422524660627047 0.0442671383575847 0.49369090028728 0.65131971673122 15.1506891906986 -28.9979259168654 1.41994643555353 40.2706573747146 2.14935673554343 1.51760695634967 -10.6880798614687 16.464701293934 9.1930481907805 14.9470943375844 12.1080262970222 69.2685832915799 71.8898919262546 -979.307457711803 1349.55948662256
-0.0294500006064773 0.0600499968752265 0.00564999974519014 16 -0.356471372445424 0.181500170399086 0.440000369104867 0.594654921816377 27.6016406425794 -24.6927654623408 0.757625924280133 47.7354579991746 -0.80425690758274 0.646580919290143 -25.7430270949008 15.7602159481878 8.81122568585404 15.1136350288977 26.500653019181 72.4282234615154 78.591056285184 -330.411124739704 1401.95278412367
-0.026650000564754 0.0600499968752265 0.00564999974519014 16 -0.258857821623484 0.303824441840018 0.347942315377295 0.5295096959501 34.7823734657262 -17.8055061774247 -0.0704427667936667 30.3693912760042 -3.59902218239527 -0.157701529986338 -38.0835958020677 14.012070085212 8.30745449491295 14.1697716151983 38.013153035274 48.1748974534289 62.9809731264803 14.8489131229928 674.141133128136
-0.0238500005230308 0.0600499968752265 0.00564999974519014 16 -0.148342968622843 0.346055246049461 0.222015703333697 0.437093630913271 36.1954983311237 -9.45292025437102 -0.784049443452311 6.35206720533326 -4.90759103770269 -0.590282565571114 -39.9151811332077 10.6898722012887 8.15355117524155 11.2801547668598 39.1311316897554 15.8049874597043 43.6839213840367 15.460036581384 112.535004446352
-0.0210500004813075 0.0600499968752265 0.00564999974519014 16 -0.0411623648802439 0.338541823075041 0.117501960479033 0.360709879224181 33.36426439851 -1.18833204941502 -1.17039974394884 -9.53884796292788 -4.83001204557796 -0.344999546340906 -31.2009369097976 5.85382043781303 8.79402988050115 6.19881998415394 30.0305371658488 -8.35051591351286 31.7803342916214 22.5048712929118 43.9479469491646
-0.0182500004395843 0.0600499968752265 0.00564999974519014 16 0.0528556112448375 0.294716633016942 0.0390457801796341 0.301953940803469 29.9088415603812 5.54987823687792 -1.44634367664662 -16.7113893240996 -4.05800423601365 0.446932740315597 -25.4244043708798 0.498534007677163 9.70451407641826 0.051601267361566 23.9780606942332 -22.2612675609775 32.7187116306335 4.06310520055681 185.250547208529
-0.015450000397861 0.0600499968752265 0.00564999974519014 16 0.136230178674062 0.248671583158818 -0.0333422100109359 0.28549592084773 25.0256625015071 10.1047378005966 -1.67897619052172 -18.3356476379114 -3.03473429178928 1.3253799066293 -23.9276336583102 -3.71186903903347 9.91424260472204 -5.03724894566276 22.2486574677885 -28.440385438508 36.4586362875857 -4.7131035035268 292.099782423868
-0.0126500003561378 0.0600499968752265 0.00564999974519014 16 0.199520254135132 0.195455888202438 -0.101771505026845 0.297268860257143 16.9060850273325 12.7330074820775 -1.62985508104145 -20.1411030523484 -2.10486798574193 1.83396987624625 -23.7090879867653 -5.82858968422957 8.85644959156741 -7.66255956047582 22.0792329057238 -32.8741105344259 40.3350280544428 -58.968863081526 324.005051727067
-0.0098500003144145 0.0600499968752265 0.00564999974519014 16 0.234741456508637 0.137865042062476 -0.171498580850118 0.321748480121179 7.45893250778411 13.9740847807159 -1.07096318511011 -23.0851578832225 -1.23716964961007 1.92027969614653 -18.3721794146634 -6.32667910521062 6.75459654327895 -8.24695880135716 17.3012162295533 -37.0592426639384 41.7220790387741 -229.748421039004 347.864552060594
-0.00705000027269125 0.0600499968752265 0.00564999974519014 16 0.24451197942098 0.0677768159770252 -0.209326119929125 0.328933472527397 -0.55370452979175 14.3958434919189 -0.233928950358596 -26.8263643602787 -0.203326600175401 1.81340410875134 -8.79662142972569 -6.59943156809896 4.45898400330944 -8.4128356768503 8.5626924793671 -41.2222078521976 42.934437539482 -392.874985446664 392.834787852034
-0.004250000230968 0.0600499968752265 0.00564999974519014 16 0.233446545600891 -0.0104779305641326 -0.226228369601692 0.325248138956298 -7.00475965985074 13.9380545067178 -0.0732504293524163 -29.020766262578 1.34912430852673 1.5827767903031 -0.261086690579639 -7.40754645565535 2.66780563785258 -8.99032324595845 0.187836261227223 -42.9588207692959 43.8898789747288 -357.38322008536 391.659962477058
-0.00145000018924474 0.0600499968752265 0.00564999974519014 16 0.202549418608348 -0.0916472455013233 -0.215683519422309 0.309749681415418 -12.3058502379386 12.0163057751534 -1.22309766424669 -26.9340998092019 3.87094025021763 1.26035301399358 3.38309605831448 -7.9370874031849 1.68763271093189 -9.19744041717848 -4.60619372256116 -38.9504055843553 40.2857794516017 -201.702558857619 275.919526995422
0.0013499998524785 0.0600499968752265 0.00564999974519014 16 0.155728681087494 -0.156099085660923 -0.208389972676523 0.303388739688124 -21.4382563829556 7.8753311610066 -3.48587658915959 -21.3323371104408 7.24795427717397 1.00771426353212 7.41716651965164 -6.57120859056041 1.69630787750188 -7.57892285409253 -10.9030431088112 -29.2076682714474 32.084331168279 -27.9660026030894 21.0218236448928
0.00414999989420176 0.0600499968752265 0.00564999974519014 16 0.0669857621192933 -0.204521453155709 -0.167639790948403 0.272798857469839 -32.0976588172211 1.64301122145292 -5.73880406089608 -13.5149317362437 10.4535850939186 1.13402291638927 14.4229960227989 -2.93790475359102 2.42404430227648 -4.07192766998029 -20.1618000836949 -15.1579429576966 25.5507732226095 78.1148994277149 -279.694217385926
0.006949999935925 0.0600499968752265 0.00564999974519014 16 -0.0408938841025035 -0.225681127586092 -0.116992030637339 0.257471195162035 -42.1420017748252 -5.05679850101037 -6.69697673975723 -2.5282958092067 11.9131979895831 1.83030540771277 29.2119149697999 1.24126660450078 3.44619878121123 -0.58903880321199 -35.9088917095572 2.52850269180366 36.002622076494 143.987369596817 -425.645941943253
0.00974999997764826 0.0600499968752265 0.00564999974519014 16 -0.181337610880534 -0.216389267301808 0.00567837820000326 0.282382520886572 -43.8438133283203 -10.1563550082818 -6.1692131207433 11.2225641945221 10.2826558046464 2.87358608143279 41.1884276180197 3.54122403069086 4.6519941413523 0.667637949258063 -47.3576407387629 21.3789192028039 51.9639304042049 57.5287001054615 -249.052627734575
0.0125500000193715 0.0600499968752265 0.00564999974519014 16 -0.291266425848007 -0.167121706174371 0.117405803114331 0.355738553021494 -31.8072217946042 -12.5634483185322 -4.95266903439726 29.9514808532591 5.94162316701072 3.86422480923495 39.747749263013 2.81355635076088 6.26192059247229 -1.05066845847407 -44.7004182974103 42.5149291717913 61.6988695411473 -27.3901031518211 211.324263896728
0.0153500000610948 0.0600499968752265 0.00564999974519014 16 -0.358579954703649 -0.0568854723412854 0.227438692803262 0.428420237457124 -9.72626065464694 -12.6256541197224 -3.94385564694731 45.8051288748129 0.296952951976984 4.36356477773095 21.3960542342613 -0.261529731807755 8.30965189895553 -4.62509450953871 -25.3399098812086 58.4307829945352 63.8565496512645 -483.393135277766 582.6013588525
0.018150000102818 0.0600499968752265 0.00564999974519014 16 -0.342385769089063 0.0782357936259359 0.233616943504312 0.421812435297119 14.9044053645256 -11.0926339789903 -3.16857623447967 53.1147479058362 -5.05480305679291 4.05773088192959 -5.39798565030148 -4.32104373927356 9.71268871962392 -8.37877462120315 2.22940941582181 64.2073818848266 64.7901382850834 -353.627402162573 609.939448414009
0.0209500001445413 0.0600499968752265 0.00564999974519014 16 -0.269397806723912 0.230196890620282 0.190691600231609 0.402404116676001 30.403536317977 -8.28887693768473 -2.13271434241793 46.1990220736663 -8.6610484892835 3.10187651551966 -22.0882379550776 -8.12765865658065 9.18007971214882 -11.2295351721003 19.9555236126596 54.4878990113511 59.103777557006 -132.230737007532 297.312369349615
0.0237500001862645 0.0600499968752265 0.00564999974519014 16 -0.163444684346517 0.329671648418686 0.100536914446081 0.381451480241675 35.0098745755996 -4.19068474523294 -0.765822627183275 27.6980097424159 -9.8073647320352 1.95474787340261 -24.1653793455636 -11.1516102885223 6.73518768587628 -13.1063581619249 23.3995567183803 31.8886944876488 41.667789898337 17.2152440114373 -54.2451561341017
0.0265500002279878 0.0600499968752265 0.00564999974519014 16 -0.0617105799913407 0.38339522481212 0.0447818541975115 0.390903451707671 30.5617475654579 0.748685180391776 0.408124042476956 8.14188870484971 -8.66785990311906 1.10372698874322 -13.5661336341685 -13.2682620082008 3.96489789622345 -14.371988996944 13.9742576766455 7.39320352445793 21.3657062531437 74.6041622821261 -164.012424401312
0.029350000269711 0.0600499968752265 0.00564999974519014 16 0.0187893251578013 0.377897018339718 0.016893981846127 0.378740810888597 22.1735564417623 5.50315233528171 0.892215208825238 -5.38286234363737 -6.67763263653408 0.707472739176918 -3.51355248199487 -14.6806654728489 2.38546635189346 -15.3881382120258 4.40576769082011 -10.8860146789191 19.3574508179028 17.3384113307135 -67.9581322813195
0.0321500003114343 0.0600499968752265 0.00564999974519014 16 0.0707625659306843 0.356548426234319 0.0209046212191849 0.364103177925683 12.083537838463 9.0059073039056 0.792183088426668 -7.01430199048662 -5.08290441365134 0.656080003598555 1.70694229442225 -15.4977208952997 2.20260225035131 -16.1538008988983 -0.914759205995585 -16.0202092943922 22.7690398067712 -25.7922298670004 25.9858306138473
0.0349500003531575 0.0600499968752265 0.00564999974519014 16 0.090644157330195 0.341308285281993 0.0261242505193998 0.354104766030388 6.85068303513943 10.4962321513711 0.596431377646356 -5.65363331265699 -4.37772702678661 0.723290981927295 1.90405463963808 -15.7368749187586 2.44706122652965 -16.4601659006859 -1.30762326199172 -16.1498654640281 23.0968633060771 -45.7090288069089 45.6496040170711
-0.0350500006899238 0.0572499968335032 0.00564999974519014 16 -0.356845824718475 -0.0498227817327521 0.456954134802412 0.581917806491277 5.80651467617294 -46.4378811831544 1.65147108358932 31.9843298754745 9.31705502456331 1.83645653276338 -1.60391266993078 28.600745323076 12.2779133420802 26.7642887903126 3.2553837535201 78.4222110586289 82.9274855832376 -1304.02408934837 1675.19479523202
-0.0322500006482005 0.0572499968335032 0.00564999974519014 16 -0.340350401798884 0.037908832499282 0.451026386176236 0.56630404961762 12.660456730234 -43.9798024064426 1.45051550796994 42.5989673697746 6.90107002384995 1.35965984808532 -9.96943737300064 27.7544875580558 11.5524430788838 26.3948277099704 11.4199528809706 86.5787697762172 91.230398604883 -1750.58278356985 2163.57245161147
-0.0294500006064773 0.0572499968335032 0.00564999974519014 16 -0.283710823456446 0.183444757597172 0.39587386135788 0.520442047246971 22.5551778933178 -37.878160681558 1.01183648709133 50.8220861017308 2.47066980727575 0.472842006943014 -24.3270171800283 25.8546636032972 9.93770212041444 25.3818215963542 25.3388536671196 88.7002467832888 95.6766855201892 -1482.32844054983 2241.86275288928
-0.026650000564754 0.0572499968335032 0.00564999974519014 16 -0.208356827100118 0.315781800597142 0.307321315136117 0.487418817573341 27.6055048230747 -27.9505823846169 0.382504854860358 32.8822784794594 -2.19725707379813 -0.32472040357801 -35.4668180789182 22.4045912529338 8.11603318809388 22.7293116565118 35.8493229337786 60.8328608640763 74.1783831321312 -216.226526960146 1085.4780828855
-0.0238500005230308 0.0572499968335032 0.00564999974519014 16 -0.120517800649007 0.360500555043303 0.189115915690296 0.424558617892963 28.2957951978475 -15.6582059163737 -0.206980576226664 7.31198218637474 -5.233869639859 -0.747844683734546 -35.9262525755012 16.9062842667189 6.98197702973276 17.6541289504535 35.7192719992746 22.9701881027485 45.990914348739 5.96879777839421 132.621092167542
-0.0210500004813075 0.0572499968335032 0.00564999974519014 16 -0.0387617019812265 0.352256693388772 0.0988261128977562 0.367904672664201 25.9613918795548 -3.11049299912768 -0.591114305375994 -9.61607711720032 -6.14241513066961 -0.458613474016807 -26.221469223333 9.54990527703967 7.15757667219234 10.0085187510565 25.630354917957 -6.50558411807264 28.2738070575579 45.7996840179279 -58.6407115320549
-0.0182500004395843 0.0572499968335032 0.00564999974519014 16 0.0363759088516236 0.306477378177612 0.0368542347134402 0.310821210176715 24.3811601894684 7.57399079530924 -0.96805196232092 -17.5175022016869 -5.51640903533132 0.388225481257898 -20.8451896002577 1.77631829666485 8.05552536336428 1.38809281540695 19.8771376379368 -25.0914929969961 32.0407619004289 -9.81622291564246 129.277590743978
-0.015450000397861 0.0572499968335032 0.00564999974519014 16 0.107059965531031 0.256563224901135 -0.0223923433820407 0.278904897112466 21.4330604387931 15.1759877076964 -1.35841027006746 -19.3088555077226 -4.07817826934098 1.25083154131354 -21.0892639786137 -4.23779847141695 8.49126712138414 -5.4886300127305 19.7308537085462 -34.484843215419 40.1078054632353 -53.0648919352187 329.640952085957
-0.0126500003561378 0.0572499968335032 0.00564999974519014 16 0.16273406624794 0.201481194800581 -0.0853696893070204 0.272699527004056 15.1546680017255 19.6439169021904 -1.48782624109562 -21.040864999662 -2.51516388756532 1.71646503988302 -22.6395569944185 -7.44012559506165 7.7385538386871 -9.15659063494466 21.1517307533229 -40.6847819018524 46.7599224156576 -197.805511320871 452.107001492508
-0.0098500003144145 0.0572499968335032 0.00564999974519014 16 0.195353492101034 0.14098076661583 -0.154365324756751 0.286124478014226 6.82480073165269 21.6157732710494 -1.09808235788649 -24.0116201077685 -0.978172494416284 1.75480446784655 -17.8617168133739 -8.85408938170427 5.99049810016168 -10.6088938495508 16.7636344554874 -45.6273933788179 49.75366414058 -451.227596741541 543.301678603432
-0.00705000027269125 0.0572499968335032 0.00564999974519014 16 0.203026423454285 0.0688003551878501 -0.192480793819608 0.288100804379368 -0.481369658517872 22.0369839388392 -0.426925393112055 -27.9642454391309 0.741556459170406 1.60752356386103 -7.64606911141615 -10.4241868136738 4.14571392377542 -12.0317103775349 7.21914371830409 -50.0012293779701 51.9326586065338 -629.178270065138 630.462149742527
-0.004250000230968 0.0572499968335032 0.00564999974519014 16 0.193050121466319 -0.0140048968497043 -0.204832134754397 0.281816766644525 -5.97135578919132 21.0838415253063 -0.341708420872786 -30.7423524825225 3.08354012173305 1.32805399589244 1.10122827673503 -12.6676824701126 2.78422412380737 -13.995736466005 -1.44293669760781 -51.8261940078288 53.7021143985624 -642.903808384071 638.913311951644
-0.00145000018924474 0.0572499968335032 0.00564999974519014 16 0.166662136713664 -0.101494747586548 -0.192070304013129 0.273803676537253 -9.7290012067918 18.1141715340215 -1.4106904079343 -29.5342517987463 6.56467301732494 0.917368839811349 3.46744740760689 -13.9378351375432 2.00720788204186 -14.8552039773545 -4.87813781554119 -47.6484233327678 50.1482358598473 -485.403185347139 482.446957467998
0.0013499998524785 0.0572499968335032 0.00564999974519014 16 0.131478718519211 -0.177272271287123 -0.186732798210433 0.289104219129101 -16.8394920700864 12.3188830613878 -3.42807059522932 -24.0827294999979 10.7895460541076 0.577850196319241 5.06880791259787 -12.1291208173233 1.8787141969362 -12.7069710136425 -8.49687850782719 -36.4016125613857 39.480899860408 -133.620954048972 128.000780024126
0.00414999989420176 0.0572499968335032 0.00564999974519014 16 0.0625524576505025 -0.234942354027104 -0.160392315474649 0.291266912877578 -26.2602536499983 3.96015356114704 -5.35061225482192 -15.2919109021834 14.2483740040229 0.635115478567692 10.7113889852471 -7.28025645170754 2.24217508288221 -7.91537193027523 -16.062001240069 -19.2520644633305 26.2922608904369 119.96967088133 -278.604044539395
0.006949999935925 0.0572499968335032 0.00564999974519014 16 -0.0246753358840943 -0.262931634102327 -0.12222874351554 0.291001343904286 -36.4114719560878 -5.3745115173255 -6.08863851650741 -2.31742809262333 15.3279478214911 1.2724397554588 26.0287401071859 -1.77853167090561 2.97178199485916 -3.0509714263644 -32.1173786236933 3.05708342470216 32.4064838476461 235.780749883648 -472.481159675173
0.00974999997764826 0.0572499968335032 0.00564999974519014 16 -0.1493594622612 -0.248111141830159 -0.0098139466108599 0.289764906804293 -39.4505742617102 -13.7984282335826 -5.58776469291459 13.6509309325044 13.232227428571 2.27529157016314 40.1212957487229 1.70512258560857 4.22205426102418 -0.570168984554579 -45.7090604416375 27.449359166087 53.3208272418673 89.535602125416 -224.044154215221
0.0125500000193715 0.0572499968335032 0.00564999974519014 16 -0.254022349119186 -0.185397606060918 0.107991563154695 0.332508351621044 -29.2499974505414 -19.9465272075053 -4.62749442729397 33.5358642862733 8.66648813678639 3.23460558608809 40.591797083541 2.17076252768733 6.18171704876891 -1.06384305840076 -45.219291510835 53.4823914937786 70.0448591024965 -184.180843600151 469.004597258678
0.0153500000610948 0.0572499968335032 0.00564999974519014 16 -0.322094792922338 -0.0589524815891248 0.225408418393151 0.397529125719992 -9.14102441772947 -23.0682525214222 -3.93223444437914 50.2469379190148 2.52185239791483 3.77931604042308 23.5835796235122 0.164218012097982 8.50241910233941 -3.6150980283251 -27.5158140678913 73.3151904404369 78.3920028248462 -1140.33136385476 1171.89329572395
0.018150000102818 0.0572499968335032 0.00564999974519014 16 -0.311027449766795 0.0940248143033629 0.246976793199489 0.408137570669892 13.4845886084936 -22.744678715885 -3.33424692528646 57.1423867085371 -4.16367677939796 3.67592193323 -2.53535240755729 -3.53276928407516 9.77642549363629 -7.20869121730516 -0.798894517729175 79.887065424422 80.2156261812048 -1056.29510508 1339.19765143248
0.0209500001445413 0.0572499968335032 0.00564999974519014 16 -0.245539339780807 0.255173987517289 0.211976661552817 0.412719561359218 27.1006326779865 -18.9565440002977 -2.28536950478046 48.8486803676902 -9.63889206529244 3.06422377830179 -19.1202318823949 -8.0945369603996 8.80538367485659 -11.1587607387014 16.8348623776145 67.8052243679879 70.7494097790927 -467.363090508131 799.646088947987
0.0237500001862645 0.0572499968335032 0.00564999974519014 16 -0.151054283380508 0.360627701142803 0.132329008875725 0.412771973308719 30.0298406924331 -12.0396705412914 -0.828827395215369 28.0090277070803 -12.2174629097302 2.27474236446133 -21.3939163491767 -12.8260221521552 5.96391296141951 -15.1007645166166 20.5650889539613 40.0486982483717 47.4853051381138 -80.7902770157083 88.0065036580874
0.0265500002279878 0.0572499968335032 0.00564999974519014 16 -0.0645146222909292 0.407925034735041 0.0801604227290712 0.420702583573038 24.937726380788 -3.08207211532986 0.409375701563061 6.66709945966508 -11.4335265721821 1.62114133680195 -11.7465933120083 -16.7114748974763 3.1049607787436 -18.3326162342782 12.1559690135713 9.74917157499494 24.0603147745601 115.250081634167 -190.747232502436
0.029350000269711 0.0572499968335032 0.00564999974519014 16 0.00282999793688465 0.397608114535299 0.0583339313559312 0.401874444547146 17.0890467503691 6.04163637576994 0.923525337559819 -6.93207952005005 -9.07292923944645 1.22163201134821 -2.32074389639865 -19.25302265035 1.79433960970803 -20.4746546616982 3.24426923395847 -12.97371589582 24.455144050356 53.9036174501812 -73.1195964065128
0.0321500003114343 0.0572499968335032 0.00564999974519014 16 0.0435617272059123 0.370101074553871 0.0645674668180679 0.37820812687513 8.96454728672273 13.0775516293622 0.841180178264235 -7.97779384469416 -7.09179628312048 1.03682071774041 2.04661975042373 -20.5131568844641 1.95467488633407 -21.5499776022045 -1.2054395721595 -21.0553454740563 30.1526481797123 -57.8665650141417 63.9627771972268
0.0349500003531575 0.0572499968335032 0.00564999974519014 16 0.0604965249697367 0.353455175423684 0.0708216863057654 0.365521684470831 5.22873676499429 16.2404159886623 0.679170708621373 -5.88813900925151 -6.28519499233635 0.998144954990335 1.891218529669 -20.768837629323 2.37541288888993 -21.7669825843133 -1.21204782104763 -22.1285549979138 31.0635403172594 -62.8284949657784 79.6985225596944
-0.0350500006899238 0.05444999679178 0.00564999974519014 16 -0.181061977148056 -0.0967730046544845 0.346635412882703 0.402870405295527 2.94817162512435 -68.4878440489684 1.30883287757719 33.8925988505912 7.61526322784423 1.46920223363674 -0.587018029210095 50.7955677706005 16.4498170733309 49.3263655369638 1.89585090678728 102.38044289956 113.659314075253 -2090.46438624706 2443.58804532605
-0.0322500006482005 0.05444999679178 0.00564999974519014 16 -0.172936125596364 0.00308269480962357 0.345355295370488 0.386246924368347 7.91650552273272 -65.2491906011627 1.36139552253392 45.1545259637047 6.83959997625523 0.998242776922252 -8.19837198316158 49.5317952655414 14.7309224839922 48.5335524886191 9.55976750569549 110.403716564867 120.97882254041 -2751.70827458196 3179.52951842555
-0.0294500006064773 0.05444999679178 0.00564999974519014 16 -0.135391400655111 0.165137576961618 0.29566479730575 0.36471759357338 12.8354229899551 -56.8871262151833 1.36364586393283 54.6096107787665 4.92691692186363 0.0759489915767623 -20.4457939059234 45.779330556356 11.1492449902128 45.7033815647792 21.8094397698562 111.49673699395 122.45804632538 -3031.48782042624 3392.26349124233
-0.026650000564754 0.05444999679178 0.00564999974519014 16 -0.0994308598836262 0.31947620009499 0.219309377952789 0.400060172452058 13.7758489005437 -43.2652936862306 1.14111678659672 36.633107292765 2.05649031259622 -0.72859884975272 -28.8943165838549 38.7756781375512 7.1763835506413 39.5042769873039 30.0354333704516 79.8984009789955 94.0556730720738 -1445.88135428545 1788.11468835026
-0.0238500005230308 0.05444999679178 0.00564999974519014 16 -0.0568638137976329 0.377841690505544 0.119784479266576 0.400432463565161 12.6454276765003 -26.0776467105955 0.807439940702179 9.45336930936073 -0.799113057634509 -1.11498742446945 -26.7654124722875 28.540643525489 4.38457948698179 29.6556309499584 27.5728524129897 35.5310160199562 53.8718083661485 -133.09310203474 341.791528449521
-0.0210500004813075 0.05444999679178 0.00564999974519014 16 -0.0259724466005962 0.374471045509951 0.0579809671003992 0.379822227434933 10.8660893758224 -7.87968960276187 0.43489119897803 -9.01852697895563 -2.62950482805456 -0.718271973352228 -15.7839588679387 16.2986720565602 3.73060041307894 17.0169440299124 16.2188500669167 -1.13883737619377 23.5355992526154 40.7997718178853 -50.3370378900552
-0.0182500004395843 0.05444999679178 0.00564999974519014 16 0.00743067860603341 0.327272103946113 0.0265502335969359 0.328431362555273 12.2502282979081 8.66206099809402 -0.122583354105357 -18.2797993429275 -3.09076392039689 0.257258104757509 -11.2800153824473 4.06957446373027 4.60832144007987 3.81231635897276 11.157432028342 -26.9418603410215 29.4089422476068 -71.4689296915449 160.258256238441
-0.015450000397861 0.05444999679178 0.00564999974519014 16 0.0477554309368133 0.270536718512109 -0.00889422510993124 0.274863246883913 12.9127355053542 21.7113209107061 -0.799873725433172 -20.8358606240233 -2.23969242884591 1.12771190233553 -14.3108475986325 -6.25989936597952 5.58741816704233 -7.38761126831505 13.5109738731993 -42.5471815347294 45.2480482651266 -282.429563837726 478.700747334803
-0.0126500003561378 0.05444999679178 0.00564999974519014 16 0.0856951713562011 0.209687878443237 -0.0608530550428986 0.234554392557139 10.6633449306112 30.2550397207653 -1.24305504340206 -22.7457326748105 -0.570834019172392 1.51462403731112 -18.8749741117103 -13.6005715050242 5.65198906169898 -15.1151955423353 17.6319190683082 -53.0007723955758 57.8656684126437 -546.532944898297 736.265927545302
-0.0098500003144145 0.05444999679178 0.00564999974519014 16 0.112644166946411 0.142465220765832 -0.124889592548522 0.220414286746218 5.2839901338751 34.3153170207982 -1.14698699252468 -25.8717902966913 1.45721245174984 1.43070967659309 -15.4539089502285 -18.3589984642351 4.78663692404003 -19.7897081408282 14.3069219577038 -60.1871073174895 64.9523552417461 -834.437455020606 936.307235559131
-0.00705000027269125 0.05444999679178 0.00564999974519014 16 0.118291947046916 0.0641684393291265 -0.154311376319189 0.204750028580239 -0.0171765327732462 34.9707238250413 -0.741741555732936 -30.0522669750035 3.68567522295854 1.16179016422587 -5.14655001186343 -21.6962279949636 3.77677774161836 -22.8580181591895 4.4048084561305 -65.0229908000449 69.064322658546 -1047.53680685437 1086.13038004914
-0.004250000230968 0.05444999679178 0.00564999974519014 16 0.112488072713216 -0.0271190895764933 -0.152914229271895 0.191759675208343 -3.60592914664236 33.0942464702807 -0.752785701972754 -33.6160859841211 6.30544659786709 0.763329330704644 3.05586452069337 -23.9068876820359 3.00943922567925 -24.6702170127406 -3.80865022266612 -66.7103324544018 71.2277606004228 -1088.72578303161 1118.43531465483
-0.00145000018924474 0.05444999679178 0.00564999974519014 16 0.0957723490397135 -0.127119909061391 -0.132022929165978 0.206789428999467 -4.62470462838893 28.5941932406136 -1.64261166042171 -33.6564667687412 9.82026217386868 0.197331524510715 2.60074933751981 -23.7246731884766 2.43918461058063 -23.9220047129873 -4.24336099794153 -62.2506600093548 66.8237464801797 -870.679950226574 938.590273778959
0.0013499998524785 0.05444999679178 0.00564999974519014 16 0.0829080088933309 -0.219989424629312 -0.13296843242036 0.270092000821424 -8.01504083925117 20.4607339040092 -3.20802210883833 -28.2588019699329 13.8936765770159 -0.260846295620652 -0.303502978054655 -19.2943785479569 2.08477329723042 -19.0335322523362 -2.90451913078368 -48.7195358739422 52.3861122546248 -388.519495677762 473.086553756762
0.00414999989420176 0.05444999679178 0.00564999974519014 16 0.0447356283664704 -0.288414793641617 -0.128112218619111 0.31874301591751 -14.6507659606521 8.38552448406861 -4.58695642201241 -17.7036696866709 17.0226798815231 -0.253282638923104 2.73855622688418 -10.7980992645572 1.99266884523692 -10.5448166256341 -7.32551264889659 -26.0891941707396 29.0775230326784 121.169221051967 -86.3876373832834
0.006949999935925 0.05444999679178 0.00564999974519014 16 -0.00748585621515918 -0.319161148548592 -0.109780801523787 0.337596950770198 -23.8827114233869 -6.41805865950583 -5.01003663262387 -1.71518556759283 17.752622323512 0.354868091634396 18.2288269654897 -0.527078145300069 2.4313186007923 -0.881946236934465 -23.2388635981136 4.702873091913 23.7263487670398 322.585112766445 -358.378983116172
0.00974999997764826 0.05444999679178 0.00564999974519014 16 -0.0986604865392049 -0.295068735765914 -0.0123064405055872 0.311369393018269 -28.3720661871395 -21.6014105505203 -4.60277003074106 17.2313137368577 15.6657173870483 1.27407264668482 35.2016552030857 8.70882128551909 3.84689289403553 7.43474863883427 -39.8044252338268 38.832724287378 56.103905667052 24.453363502386 29.801401488617
0.0125500000193715 0.05444999679178 0.00564999974519014 16 -0.17470610499382 -0.219082906114248 0.105531624433158 0.29942689696999 -21.4273618623085 -34.3544552394013 -4.05704502534443 38.4987356977066 11.6882024630463 2.10216181004666 38.5298030644452 15.2248159081733 6.23087976998259 13.1226540981266 -42.5868480897897 72.8531909371078 85.4015872833789 -1019.44101015648 1135.78433661024
0.0153500000610948 0.05444999679178 0.00564999974519014 16 -0.224213457504908 -0.0752855863018582 0.222575246284056 0.324775821590106 -6.14481970144557 -42.0515702300012 -3.80205695306743 56.5819800524377 6.53492465706168 2.66766964919047 24.6363023978833 18.2406316684874 8.64177064053001 15.5729620192969 -28.4383593509507 98.6335502824389 103.825982634149 -2333.55187301634 2387.58501704526
0.018150000102818 0.05444999679178 0.00564999974519014 16 -0.210886937777201 0.103979628720166 0.256447570061234 0.347923008586871 11.0257859812784 -42.9125461246072 -3.40146300237042 63.3196669229683 0.708131486520297 2.89347701042922 1.5461773766459 16.8033664060862 9.33199244640808 13.909889395657 -4.94764037901632 106.232213047575 107.253192294239 -2571.99332839161 2791.15577356783
0.0209500001445413 0.05444999679178 0.00564999974519014 16 -0.158970348040263 0.286091125972259 0.231593765485256 0.400943108343012 19.634067790625 -36.7753133256178 -2.27596893885636 53.4140347850323 -4.55928785935856 2.87412436075414 -12.7233779296517 10.8867503454642 7.43428288166357 8.01262598471005 10.4474089907953 90.1893481106501 91.145318269321 -1530.29281637648 1926.62278934268
0.0237500001862645 0.05444999679178 0.00564999974519014 16 -0.0925383122762045 0.407691232102807 0.173829268118328 0.452760526577778 18.6361548212129 -24.8319360260424 -0.66146202996324 29.1696381262398 -7.70668185142232 2.70246646464129 -13.6668084643414 1.49427369964131 4.02034841875877 -1.20819276499998 13.0053464343782 54.0015741522821 55.5586966780181 -421.350720112491 611.577661652401