TITLE="DynamicStudio Exported Data"
VARIABLES= "X (m)[m]" "Y (m)[m]" "Z (m)[m]" "Status[-]" "U[m/s]" "V[m/s]" "W[m/s]" "Length[m/s]" "dU/dX[1/s]" "dU/dY[1/s]" "dU/dZ[1/s]" "dV/dX[1/s]" "dV/dY[1/s]" "dV/dZ[1/s]" "dW/dX[1/s]" "dW/dY[1/s]" "dW/dZ[1/s]" "Vorticity X[1/s]" "Vorticity Y[1/s]" "Vorticity Z[1/s]" "Vorticity Magnitude[1/s]" "Lambda-2[1/s²]" "Q-Criterion[1/s²]"
ZONE T="DynamicStudio Data" I=26 J=26 F=POINT
-0.0350500006899238 0.0600499968752265 0.00564999974519014 16 0.186827172239622 -0.244052032649439 -0.268379634104203 0.408036046115147 -6.58295419132754 12.2702191100651 -0.402216205204389 -5.33805427625795 5.01211118357385 0.351873860308436 7.64706136548198 -4.76683407130829 -1.06256147085064 -5.11870793161673 -8.04927757068637 -17.608273386323 20.0260663123501 -28.0124288984788 38.9268108341024
-0.0322500006482005 0.0600499968752265 0.00564999974519014 16 0.168777734239896 -0.258266383890683 -0.24623218945538 0.394737558064992 -9.54693730826959 11.7216642027183 0.154227631026698 -9.41097479755612 5.65578085487763 0.583499075924974 6.44253457031824 -5.17249800760028 -1.5993761959302 -5.75599708352525 -6.28830693929154 -21.1326390002744 22.7873372227694 -21.1587500967539 64.5648551156356
-0.0294500006064773 0.0600499968752265 0.00564999974519014 16 0.133237051169077 -0.294085379670723 -0.236179516759391 0.400023857384787 -17.8064566783315 9.4451911818302 1.26798359177345 -14.3114105567939 7.10422295037428 0.87540188323539 15.9448790479938 -5.012658585424 -3.23508394353199 -5.88806046865939 -14.6768954562204 -23.7566017386241 28.5386867687181 -2.60283414653873 27.4658408448018
-0.026650000564754 0.0600499968752265 0.00564999974519014 16 0.06497767051061 -0.334760648797189 -0.158297247849405 0.375958519420422 -25.7617767944399 4.53234526951686 2.51336532728494 -12.7393948187868 9.13934259818852 0.87899973501189 28.3202538110447 -2.3431804890211 -5.41309603021763 -3.22218022403299 -25.8068884837598 -17.2717400883037 31.2200407476877 50.0534875556159 -156.847024618385
-0.0238500005230308 0.0600499968752265 0.00564999974519014 16 -0.0204182879130046 -0.361636184996072 -0.0740233862268118 0.369698659029614 -32.670959792849 -2.95254422889574 3.6198822449 -0.188566198718255 11.2810737037836 0.516076305127089 45.0011360873382 3.44899096408446 -7.38532294157063 2.93291465895737 -41.3812538424382 2.76397803017749 41.5770337147846 127.440652346328 -375.82779502316
-0.0210500004813075 0.0600499968752265 0.00564999974519014 16 -0.132107847134272 -0.332932067467943 0.104810682468427 0.373204399736161 -34.4750992744219 -11.2854083944453 4.53474744310242 24.7546779844205 12.2747640983076 0.21708377617578 56.0592344775136 10.7566748711247 -8.0997395043349 10.5395910949489 -51.5244870344112 36.0400863788659 63.7553415080183 10.8218919543529 -220.539698105948
-0.0182500004395843 0.0600499968752265 0.00564999974519014 16 -0.226811170180639 -0.222919114773395 0.253795228181019 0.406876217660261 -25.0549398137634 -17.8041507867448 5.42221520117363 53.3436517741952 10.124256766137 0.662575711769869 49.1349781445938 16.9255568996176 -7.87929359191289 16.2629811878478 -43.7127629434202 71.14780256094 85.0723222353454 -196.429541256359 536.084122713957
-0.015450000397861 0.0600499968752265 0.00564999974519014 16 -0.280093244711558 -0.0402036986519427 0.390012803121159 0.48184909434051 -6.05229106656751 -20.4055134655116 6.33825642028732 71.247594196676 4.10149799890378 2.11285814565678 23.816135421525 20.031973357766 -8.06344776201764 17.9191152121093 -17.4778790012377 91.6531076621876 95.0098052229521 -1345.60182061629 1251.47290973843
-0.0126500003561378 0.0600499968752265 0.00564999974519014 16 -0.259626364707947 0.165105590513 0.387815772147151 0.495042198601494 15.8531524362194 -18.7075410029777 6.94625976359693 66.2708017115076 -3.66726014635041 3.89249530443706 -13.2565704646527 19.5458278848239 -10.0116416878215 15.6533325803868 20.2028302282497 84.9783427144853 88.7383789608769 -1036.60885194183 1075.6268577012
-0.0098500003144145 0.0600499968752265 0.00564999974519014 16 -0.184256665706634 0.319173564882949 0.305500806294925 0.478699306479825 30.8651392474446 -14.1607901543545 6.67944639902144 42.1575711665349 -9.6392174249815 4.88340294070773 -39.9791060763609 16.1193983429775 -12.7882562806363 11.2359954022697 46.6585524753824 56.3183613208893 73.9934181778899 1.62398765611437 216.346981437016
-0.00705000027269125 0.0600499968752265 0.00564999974519014 16 -0.0782152239481608 0.393870892014432 0.150308022439907 0.428770804093867 35.3528046827404 -8.38167025739113 5.21649708146156 10.6239887631765 -11.6741139224933 4.50582902693678 -48.9859566927073 10.3674678142561 -13.6020225905856 5.86163878731928 54.2024537741689 19.0056590205676 57.7362960296208 90.5836075039054 -436.92292264436
-0.004250000230968 0.0600499968752265 0.00564999974519014 16 0.0213025283813477 0.376797361042651 0.0193545909443249 0.37789502404076 30.4375743698268 -2.66852659883073 2.76051044844631 -15.2540977899143 -10.6831318851612 3.18739888545437 -39.065590910984 3.5121698790679 -10.6859914487562 0.324770993613527 41.8261013594303 -12.5855711910836 43.6797989159001 167.239135633699 -480.324104890463
-0.00145000018924474 0.0600499968752265 0.00564999974519014 16 0.097104987303416 0.309202439571576 -0.0722231264703441 0.332041725078885 20.6250461401342 2.26347108384004 0.0828046043674394 -29.6380035366492 -8.58325584273841 1.78755342825438 -23.7269609919747 -2.9568781495164 -4.83970199826821 -4.74443157777077 23.8097655963422 -31.9014746204892 40.0888843909459 30.2420556025133 -160.973681075254
0.0013499998524785 0.0600499968752265 0.00564999974519014 16 0.140591127872467 0.212878103403103 -0.112671782602556 0.278886863691699 9.96959469745292 5.70414685792363 -1.9340483981832 -34.072390984926 -6.50069768663778 0.779424486061695 -12.1820315963676 -7.41505867547201 0.940216317488587 -8.19448316153371 10.2479831981844 -39.7765378428497 41.8848860172566 -67.7092349757761 115.024953967094
0.00414999989420176 0.0600499968752265 0.00564999974519014 16 0.154463565349579 0.120512189195918 -0.136573522265923 0.238818985320299 2.62938092964722 7.29562117239215 -2.60345787660993 -30.9270743344552 -4.61565908882688 0.322243478215337 -7.56552549700661 -9.28570575183611 4.19803195083897 -9.60794923005145 4.96206762039668 -38.2226955068474 39.7229059270065 -195.050374703495 188.453164326474
0.006949999935925 0.0600499968752265 0.00564999974519014 16 0.157127289374669 0.0430546201982846 -0.153641555802897 0.223938413534133 -2.31670719622796 7.34434147612124 -1.9669118561642 -26.8076299041502 -2.82952577839269 0.22738979484645 -5.21255110451338 -9.50568381004206 4.51027409702457 -9.73307360488851 3.24563924834919 -34.1519713802714 35.6598379845938 -156.868371946662 172.137516554699
0.00974999997764826 0.0600499968752265 0.00564999974519014 16 0.142247899373372 -0.0265893252256016 -0.166810943823463 0.220833303809377 -4.26178848101047 6.64687884734894 -0.672714118356508 -23.4440752928999 -1.09086618511925 0.311464498411363 -3.59091321999481 -9.39295866354036 2.77951333894372 -9.70442316195173 2.9181991016383 -30.0909541402489 31.7514918700459 -127.167100277067 146.111109196685
0.0125500000193715 0.0600499968752265 0.00564999974519014 16 0.134860769510269 -0.0845003254876108 -0.178965783506477 0.239492137295781 -7.25346009165963 5.99985035686491 0.585109731776888 -23.4944717752359 0.900676991877447 0.514486231211653 1.12854225431799 -9.67517458250294 0.345471436522301 -10.1896608137146 -0.543432522541102 -29.4943221321008 31.209606604974 -105.99753731731 136.55300819709
0.0153500000610948 0.0600499968752265 0.00564999974519014 16 0.102475324074427 -0.15374769534062 -0.165632377510192 0.248140344052292 -9.62300270490329 5.60679975525057 1.33386947710512 -25.316267094472 3.04332561646702 0.751436434726882 3.43063515097671 -10.0312485250452 -1.84476032168101 -10.7826849597721 -2.09676567387159 -30.9230668497226 32.8161360404487 -80.4269065601609 127.757062844749
0.018150000102818 0.0600499968752265 0.00564999974519014 16 0.0815336702267329 -0.221772063756362 -0.16398206815531 0.287612076102326 -12.8052897774826 5.16376629582537 1.52570457540822 -25.2954996561508 5.01545252894896 1.13410491629755 7.68739745569103 -9.45035241307296 -3.04290042823379 -10.5844573293705 -6.16169288028281 -30.4592659519761 32.8293173617943 -7.66587803456344 89.0884183228099
0.0209500001445413 0.0600499968752265 0.00564999974519014 16 0.0292732004324596 -0.29097172877402 -0.120166649432698 0.316166871833818 -17.4534319886219 3.77430825650185 1.05277424853833 -19.0180886577087 6.72597215353959 1.70385491498831 15.3429381188954 -6.46087542325398 -2.09804617319524 -8.16473033824228 -14.2901638703571 -22.7923969142106 28.1134302786549 -0.803459126073246 -28.2487182438454
0.0237500001862645 0.0600499968752265 0.00564999974519014 16 -0.0217965110143026 -0.324066224420288 -0.0650547697239866 0.331249345306912 -23.948094404391 0.844105332337997 0.218704174014692 -3.61644712897001 8.70824934127827 2.43523935683387 27.8405591242385 -0.325739198272468 0.964860143181991 -2.76097855510634 -27.6218549502238 -4.46055246130801 28.1155900121808 77.5940521456658 -225.49322767757
0.0265500002279878 0.0600499968752265 0.00564999974519014 16 -0.113371713757515 -0.305267781016737 0.0576567852945421 0.330705108061093 -32.6676202849909 -3.74260988600093 -0.390365311883519 17.0558678610986 11.7607501371987 3.18033592927021 40.6749815222145 8.67882637987241 4.62907845230661 5.4984904506022 -41.065346834098 20.7984777470996 46.3591715244861 97.3604179495726 -428.865283695738
0.029350000269711 0.0600499968752265 0.00564999974519014 16 -0.215469326575597 -0.22034171805135 0.18826675310925 0.361139687288812 -35.0169527216717 -8.97678829480315 -0.240989699916629 30.6867921115314 15.6785636474193 3.58823081431207 41.341277888812 18.5665800949985 6.67664811194252 14.9783492806864 -41.5822675887286 39.6635804063345 59.3854825327254 21.0612007404168 -459.320657314841
0.0321500003114343 0.0600499968752265 0.00564999974519014 16 -0.317343064943949 -0.125494080102847 0.307956880068329 0.459665992858182 -25.700132118542 -13.0872316009243 0.627294646482729 25.8932175999958 19.075555137039 3.44755129786191 28.2353305489646 26.3159983052733 6.55966738984607 22.8684470074114 -27.6080359024818 38.98044920092 52.9588985424453 298.99572813894 -303.266399036163
0.0349500003531575 0.0600499968752265 0.00564999974519014 16 -0.362966620524724 -0.0711339593073353 0.355632860589152 0.51310772681056 -16.3302488990548 -14.9115292784494 1.37973100887018 19.0385725933498 20.6762347189222 3.17510080769583 16.5316542442932 29.7773482340671 5.92052184905694 26.6022474263713 -15.151923235423 33.9501018717991 45.7150933825096 13.192553898132 -145.378641025241
-0.0350500006899238 0.0572499968335032 0.00564999974519014 16 0.152771980762482 -0.257504720738604 -0.256164001126696 0.394040549667158 -5.98810192676517 21.6599585010472 -0.272091403096977 -6.04392010882245 6.97335342654247 0.469548856387777 8.10348488634818 -12.8558218202178 -2.25669610248651 -13.3253706766055 -8.37557628944516 -27.7038786098697 31.8625277070048 -98.0865284933141 95.171819438039
-0.0322500006482005 0.0572499968335032 0.00564999974519014 16 0.13493977745374 -0.27299017184089 -0.233917483533733 0.383991883460754 -7.97368466857829 20.0712734089507 0.231997017795166 -10.7205115071431 8.30362218988306 0.711430642159531 7.118939150718 -13.5491462621423 -2.74819338284637 -14.2605769043018 -6.88694213292283 -30.7917849160939 34.6255403409783 -155.332629172376 156.04482565489
-0.0294500006064773 0.0572499968335032 0.00564999974519014 16 0.104885353644689 -0.313565205199993 -0.21987937207489 0.39707809507115 -13.8464194359229 15.2968078671469 1.27361263246348 -16.123749329595 10.942683640439 1.02362150495481 14.6320968896002 -12.9660484915406 -4.41012954863861 -13.9896699964954 -13.3584842571368 -31.4205571967419 36.8973086120485 -45.7306047944896 102.56746181803
-0.026650000564754 0.0572499968335032 0.00564999974519014 16 0.0505438152949016 -0.359141231925059 -0.152683603141146 0.39350906520864 -19.0511814717205 6.26379060612338 2.4193205998017 -14.4657553831309 13.8030097616462 1.06761281179844 23.2570998818593 -7.47993843609582 -6.79998729502138 -8.54755124789426 -20.8377792820576 -20.7295459892543 30.6102557105251 100.934226232794 -184.946382925109
-0.0238500005230308 0.0572499968335032 0.00564999974519014 16 -0.0138059361775715 -0.39373724579326 -0.0820348893657986 0.402429305185222 -23.8787413342697 -6.74406000903774 3.41394566056783 -0.93767039571812 15.5645641544584 0.715407414181281 36.4561865710045 4.19744119172148 -9.10627570081718 3.4820337775402 -33.0422409104367 5.80638961331962 33.72874744121 246.666993832786 -429.737037711655
-0.0210500004813075 0.0572499968335032 0.00564999974519014 16 -0.0985601810614267 -0.368779234145331 0.0686542193607117 0.387847437356117 -26.5342380622888 -20.6995182912336 4.24710373673471 25.9902046719209 14.7469115324499 0.332300901772867 47.6946569762295 18.6710735736592 -10.0628828581783 18.3387726718863 -43.4475532394948 46.6897229631545 66.3621179287248 -105.487807633489 56.5325713430406
-0.0182500004395843 0.0572499968335032 0.00564999974519014 16 -0.175552458763123 -0.255828578901322 0.204586983847742 0.371648707142059 -20.5505340062239 -30.9718711801398 5.15250943551271 57.3772444123728 10.1946279841621 0.65154388015987 43.9693540992913 30.1449811107481 -9.79960461052884 29.4934372305882 -38.8168446637786 88.3491155925126 100.906771305526 -1136.23671078151 1422.86606811184
-0.015450000397861 0.0572499968335032 0.00564999974519014 16 -0.218222131331762 -0.0525373098657777 0.325722668667634 0.395570884184965 -6.53728616572349 -34.1241609956011 6.24140534296667 76.9331167534611 2.48309904494386 2.05060861542184 23.5160027682574 34.575265656602 -9.70592392947937 32.5246570411802 -17.2745974252907 111.057277749062 117.004204936765 -2504.85225724637 2430.72172178507
-0.0126500003561378 0.0572499968335032 0.00564999974519014 16 -0.206631149053574 0.175799475616659 0.332589404740526 0.429205777607839 11.733164534401 -30.0851688154714 7.11144749121978 71.4780932706939 -5.82012902260942 3.92180850826405 -10.01332904917 31.7942053853677 -11.2044658886087 27.8723968771036 17.1247765403898 101.563262086165 106.701568333442 -1956.03566180599 1962.40804508477
-0.0098500003144145 0.0572499968335032 0.00564999974519014 16 -0.141722098986308 0.351271720132791 0.254284075119843 0.45622074214758 25.1627459565673 -21.7783712389835 7.07280960570559 44.97322794339 -11.8524249324405 5.09995120987641 -34.7570929513707 24.4710940255102 -13.5037117048294 19.3711428156338 41.8299025570763 66.7515991823735 81.1218707582759 -669.169712808256 622.494273924206
-0.00705000027269125 0.0572499968335032 0.00564999974519014 16 -0.0557476186752319 0.428400172732072 0.122610028236328 0.449074296758277 29.4648460555915 -12.114392619945 5.65320330097755 10.7973626462025 -14.1631567598176 4.8694867367646 -42.6225989280645 14.8030333121176 -13.8342908973289 9.93354657535302 48.275802229042 22.9117552661475 54.3523408676951 131.955145140369 -329.328721592357
-0.004250000230968 0.0572499968335032 0.00564999974519014 16 0.0295301429430643 0.408394219830322 0.00784412214066832 0.409535588667472 25.2104730624387 -2.90371390492811 3.07421775477373 -16.4379289576702 -13.4830268208651 3.5791300586185 -32.9788594205354 4.63804336875561 -10.5348288659557 1.05891331013711 36.0530771753092 -13.534215052742 38.5242864736137 260.442876303564 -426.407131811331
-0.00145000018924474 0.0572499968335032 0.00564999974519014 16 0.0890126625696819 0.332814734987915 -0.0602017627724369 0.349732975516648 16.2730705583844 5.03136375665288 0.244679564423306 -31.4714299163733 -11.1657279541928 2.09196757163634 -18.5944263336286 -4.42487343717765 -4.48788671297603 -6.51684100881399 18.8391058980519 -36.5027936730262 41.5912860309428 21.9376473076285 -32.4712741198063
0.0013499998524785 0.0572499968335032 0.00564999974519014 16 0.123413971662521 0.23128949486049 -0.089665486804297 0.277066306789891 7.48607136152506 10.719970749636 -1.82899774120751 -35.7897838210059 -8.30909479042231 0.947436407629989 -9.60240220142463 -10.6509773151482 1.30628144159158 -11.5984137227782 7.77340446021712 -46.5097545706419 48.5603365722294 -323.836164855003 312.916210663678
0.00414999989420176 0.0572499968335032 0.00564999974519014 16 0.133235698541005 0.133512787755656 -0.108474613515039 0.217587126542987 1.74597459534888 13.556408981706 -2.48628714452752 -32.6377705900382 -5.50935189802977 0.35403359858805 -6.66915642548571 -13.5034267561574 4.46092834883086 -13.8574603547454 4.18286928095819 -46.1941795717442 48.4089643476441 -394.988736614117 404.242850304205
0.006949999935925 0.0572499968335032 0.00564999974519014 16 0.135566864013672 0.05050744825198 -0.126023726544906 0.191862858833316 -1.84247971738231 13.9493477359156 -1.87353114688386 -28.2576772803211 -2.94398603642059 0.187593410350099 -5.16092214423708 -14.3780987685526 4.76697260300485 -14.5656921789027 3.28739099735322 -42.2070250162368 44.7705180776508 -360.424403749147 369.811538237717
0.00974999997764826 0.0572499968335032 0.00564999974519014 16 0.124824049472809 -0.0228605773145682 -0.140876562273673 0.189604470200451 -3.6922919826814 13.138111301665 -0.673917937028788 -24.9202308083582 -0.597336342549245 0.287315128691087 -2.85207596720269 -15.2061400304549 3.22046088728215 -15.493455159146 2.1781580301739 -38.0583421100232 41.1488630381988 -313.89108776936 318.242614897245
0.0125500000193715 0.0572499968335032 0.00564999974519014 16 0.116919170618057 -0.0870932896594362 -0.149781202898982 0.209020913555517 -6.65868080336496 12.189511678536 0.447676022562823 -25.1794950003376 1.89999467234512 0.526840288558894 2.0664247379984 -16.7887877939399 1.07838246399805 -17.3156280824988 -1.61874871543558 -37.3690066788735 41.217641653312 -298.726921667798 297.062527637931
0.0153500000610948 0.0572499968335032 0.00564999974519014 16 0.0881813816229502 -0.162126966855334 -0.137456865692123 0.230120619181648 -9.09770106615169 11.2004476186945 1.10771604715215 -26.8658507742595 4.42038536903784 0.778902585094084 3.78487598613297 -17.9622197985959 -0.950957640801062 -18.74112238369 -2.67715993898082 -38.066298392954 42.5139968349336 -278.204267970432 274.940390313503
0.018150000102818 0.0572499968335032 0.00564999974519014 16 0.0646227176984151 -0.236333266262567 -0.133461877316525 0.279001041363493 -11.6807652286385 9.69829925090717 1.2757891066787 -26.5076736839169 6.52476743909757 1.12881335304146 5.9131829432279 -16.7358781586131 -2.23333607264752 -17.8646915116545 -4.6373938365492 -36.2059729348241 40.6389603774391 -196.918762984296 203.727859413881
0.0209500001445413 0.0572499968335032 0.00564999974519014 16 0.01888951420784 -0.309887253871032 -0.101311296949953 0.32657449800684 -15.1079648214432 6.69146021465887 0.876906980066748 -20.0264343255701 8.17511392652823 1.66299144324228 10.6631281814259 -11.2783460386201 -1.62032702084871 -12.9413374818623 -9.78622120135913 -26.717894540229 31.2585065203727 -8.97868311949165 31.1354619788095
0.0237500001862645 0.0572499968335032 0.00564999974519014 16 -0.0266641581058502 -0.347623685738072 -0.0609014878437544 0.353923996693073 -20.1233657714932 1.49799872263701 0.114314979278885 -5.35478435446783 10.2610377573078 2.36336302795873 20.3169476432244 -1.11997002846361 1.06499276999143 -3.48333305642234 -20.2026326639455 -6.85278307710484 21.6157491574578 99.5027877363701 -208.644099583963
0.0265500002279878 0.0572499968335032 0.00564999974519014 16 -0.102760657866796 -0.33748510959403 0.0324141630099378 0.354269149047085 -27.391468236687 -6.07397688578505 -0.530238290886798 13.9444685843382 14.0932739942593 3.02326142183096 31.235611111432 12.8414900039513 4.51742916709475 9.81822858212036 -31.7658494023188 20.0184454701233 38.8098564772129 159.956494582555 -383.671601916532
0.029350000269711 0.0572499968335032 0.00564999974519014 16 -0.190344125827153 -0.2647553848677 0.135183482761689 0.352988489989301 -29.7855849891683 -14.8367705303249 -0.557644741194201 27.0379550098071 19.5475725360038 3.2806145636959 32.430150134898 27.8960702636058 6.54430506861733 24.6154556999099 -32.9877948760922 41.874725540132 58.7163342619645 251.712980357528 -321.512377500933
0.0321500003114343 0.0572499968335032 0.00564999974519014 16 -0.279220193227132 -0.180704702757454 0.229891916357252 0.404312254465366 -22.1363079466074 -22.2618146660559 0.0150278829282482 23.3748509843637 24.5824457568203 3.00756478145581 22.4580127132841 40.0013764497753 6.53506883372835 36.9938116683195 -22.4429848303559 45.6366656504195 62.8882733228927 8.51061897690368 -128.456537332598
0.0349500003531575 0.0572499968335032 0.00564999974519014 16 -0.321269555886587 -0.130530144309935 0.269950179972414 0.43946028919605 -14.3008951036333 -25.8939908772893 0.564048596427786 17.4920586261237 27.0827571675667 2.6971540416225 13.3705875458971 45.6785998753232 6.00624828685894 42.9814458337007 -12.8065389494694 43.386049503413 62.4000113568277 -61.2847867630387 11.6586928356151
-0.0350500006899238 0.05444999679178 0.00564999974519014 16 0.0637203514575959 -0.280456586304742 -0.201759576339585 0.351316248750776 -4.37974392281547 32.6300600875085 -0.123495098196278 -7.37590794951182 6.54990783781302 0.693557154550721 8.99452623681021 -23.4000324655422 -4.72165478512767 -24.0935896200929 -9.11802133500648 -40.0059680370203 47.5827369160936 -236.113065632925 219.08267554512
-0.0322500006482005 0.05444999679178 0.00564999974519014 16 0.051813797156016 -0.301606702876538 -0.174671846647592 0.352365615245104 -4.34765375821785 30.0565949345946 0.269481021265821 -12.9848560536799 7.92797956790562 0.91077651684272 7.84520595253396 -23.729988608921 -4.9543944402124 -24.6407651257637 -7.57572493126814 -43.0414509882745 50.1709618942405 -367.103948568384 357.572684498151
-0.0294500006064773 0.05444999679178 0.00564999974519014 16 0.0410366789499919 -0.355733987784285 -0.156383856896621 0.390751314498131 -5.52612638351794 22.884736513633 1.12468446037715 -18.8787639648066 10.308277299098 1.20252119635698 11.1435877823718 -21.5508440741102 -6.34164701690532 -22.7533652704671 -10.0189033219946 -41.7635004784396 48.6033334980164 -359.673973868384 358.126309585145
-0.026650000564754 0.05444999679178 0.00564999974519014 16 0.023237287203471 -0.412028001794048 -0.112814676479126 0.427824960711811 -5.38388825617495 9.93016750670601 2.03911396518962 -16.3567181005042 12.0939285304758 1.28831752560246 12.1089490936042 -12.4002942340714 -8.72830818489729 -13.6886117596739 -10.0698351284146 -26.2868856072102 31.3014380875239 -27.8389970021682 30.0292805484009
-0.0238500005230308 0.05444999679178 0.00564999974519014 16 0.0134460635979969 -0.453169396196802 -0.0934593479572019 0.462901661258891 -6.30357335907006 -8.30444306887805 2.79574442391549 -0.843003411363449 12.1286698706822 1.00708823998582 18.1468818309777 5.37978166639309 -11.2616095980434 4.37269342640727 -15.3511374070622 7.4614396575146 17.6196183061547 158.256022084404 -205.206555439352
-0.0210500004813075 0.05444999679178 0.00564999974519014 16 -0.00961788574854539 -0.419546627028806 -0.0162307942550008 0.419970611661898 -10.315607600533 -28.1427832236376 3.43446563246436 28.8221938763434 10.0196663039135 0.626213880235925 29.6531088119069 27.2570021888048 -12.2982240427937 26.6307883085689 -26.2186431794425 56.9649770999811 68.1294705109918 -590.294388367374 592.506064567006
-0.0182500004395843 0.05444999679178 0.00564999974519014 16 -0.045328253507614 -0.287282033045388 0.0738044234458357 0.30005451170898 -10.9990686254034 -43.6405261773076 4.29489774704488 63.1054133038949 6.01179175625661 0.85264405299571 32.8991387520325 44.8948581632974 -11.7199964359909 44.0422141103017 -28.6042410049876 106.745939481203 118.96476294657 -2535.35789808838 2566.7024275326
-0.015450000397861 0.05444999679178 0.00564999974519014 16 -0.0748265278339386 -0.0529823623651949 0.173309554818455 0.196067186905028 -6.90822293001082 -49.6687649783794 5.58796660364577 83.9555529601723 0.972715597241532 2.14684870101758 23.1650805847503 51.8857111482094 -11.036327906249 49.7388624471918 -17.5771139811045 133.624317938552 143.660599045071 -4005.0187180381 3987.91862937157
-0.0126500003561378 0.05444999679178 0.00564999974519014 16 -0.0883440732955934 0.199105505897041 0.207970650570715 0.301163525785876 3.48021190098983 -45.0838677608106 6.85373557541453 77.7141004554962 -3.98249972671873 4.03932117161351 -2.12244711074455 47.1268116645253 -11.7680585063193 43.0874904929118 8.97618268615907 122.797968216307 130.447095370672 -3265.22321079281 3319.8896008242
-0.0098500003144145 0.05444999679178 0.00564999974519014 16 -0.0562944698333741 0.394708367066147 0.156588794755129 0.428350105648066 12.9166982858067 -32.8916650331269 7.2347377723672 48.6717825193911 -7.88476557769104 5.41795085420374 -22.602798302573 34.4047464371597 -13.3749458402517 28.9867955829559 29.8375360749402 81.5634475525179 91.5593187711867 -1359.17218428774 1408.87109502177
-0.00705000027269125 0.05444999679178 0.00564999974519014 16 -0.0129995616277059 0.476555989206293 0.072354224815111 0.482192630905426 16.5357462016949 -17.3804961275082 6.04886917164904 11.8078732225073 -10.2830989026198 5.45288513942561 -28.8035533984857 18.099466972176 -13.1709589445243 12.6465818327504 34.8524225701348 29.1883693500155 47.1867385646923 13.3647242654262 28.3692320284828
-0.004250000230968 0.05444999679178 0.00564999974519014 16 0.0395777638753254 0.457242037442435 -0.0095439287405073 0.45905094137109 13.4994931577056 -1.95109508389542 3.49088932197102 -17.1340920552124 -11.2775763203349 4.31333784911297 -20.3465831313241 1.81313509674793 -9.65071814477663 -2.50020275236504 23.8374724532951 -15.182996971317 28.3725131737666 152.052942385029 -143.907894733021
-0.00145000018924474 0.05444999679178 0.00564999974519014 16 0.0644380680720011 0.37237483726601 -0.0385329246264882 0.379868490830721 6.79699445570021 11.3008832619409 0.60073683651042 -33.6176371871086 -10.7525048187296 2.74467900556685 -8.36531747971882 -11.9853332404399 -3.77521185924493 -14.7300122460067 8.96605431622924 -44.9185204490495 48.1148300433532 -295.173502651 359.678414266806
0.0013499998524785 0.05444999679178 0.00564999974519014 16 0.077220056851705 0.26001327665319 -0.0483970708786122 0.275521537607749 1.91361868179081 20.6608050513762 -1.47638746244272 -38.4617727945277 -8.79094173824302 1.35902498687364 -3.93464582334044 -21.6560945944633 1.61804199376233 -23.0151195813369 2.45825836089772 -59.1225778459039 63.4918732961718 -746.373366002373 790.322993696459
0.00414999989420176 0.05444999679178 0.00564999974519014 16 0.0751727402210236 0.151283574669311 -0.0568208166368034 0.178230934577407 -0.303246981070031 25.4460410754594 -2.11213435491293 -35.6580384060289 -5.8984278411231 0.497617047275477 -4.17810280027656 -26.9624551567475 4.40230748000277 -27.460072204023 2.06596844536363 -61.1040794814883 67.0226254360976 -874.348996462794 886.435173787291
0.006949999935925 0.05444999679178 0.00564999974519014 16 0.0768210991223652 0.0581475367839448 -0.0729003530632084 0.120818371041613 -1.10150076699764 26.361344947284 -1.56773806297886 -30.8126597299376 -2.88854343712506 0.171592937810775 -4.39829886783953 -29.3414600459589 4.68138958353695 -29.5130529837697 2.83056080486068 -57.1740046772216 64.4041860574588 -796.805849813328 794.905340102113
0.00974999997764826 0.05444999679178 0.00564999974519014 16 0.070757490793864 -0.0221584239477913 -0.0840134656759134 0.112053026153566 -2.45692850465185 25.1962389531204 -0.576896761773009 -27.171386583414 -0.429054906324077 0.260543116625718 -1.44132893203312 -30.6867890956237 3.50771365752557 -30.9473322122494 0.864432170260116 -52.3676255365344 60.8346350228799 -688.396664656385 682.711436523314
0.0125500000193715 0.05444999679178 0.00564999974519014 16 0.063772555589676 -0.0955017797819649 -0.0804129402073644 0.140191903263899 -4.99419833941248 23.2449926342674 0.234790018675884 -27.4736745537362 1.61894940723599 0.534069213911737 3.18790529017383 -31.6363689194837 1.96695513264678 -32.1704381333955 -2.95311527149795 -50.7186671880036 60.1335279260152 -652.218293319472 640.048567322775
0.0153500000610948 0.05444999679178 0.00564999974519014 16 0.0413131948312124 -0.178718502406652 -0.0612666169905181 0.193392558096481 -7.02640254164892 20.4982757056536 0.639774241663697 -28.8349707563073 3.36185824598966 0.792483936819553 3.17294473566395 -30.9724862165342 0.381059309835686 -31.7649701533538 -2.53317049400026 -49.333246461961 58.7298858169477 -602.491866389412 588.564231980665
0.018150000102818 0.05444999679178 0.00564999974519014 16 0.0211084063847859 -0.259550493023514 -0.0580357893948288 0.266796132092531 -8.20223574559347 16.4505960658931 0.672575608517381 -27.948150789909 4.66707326396973 1.08544214930149 1.22196581028883 -26.8956794731089 -0.855992760671925 -27.9811216224104 -0.549390201771446 -44.3987468558021 52.4832708508866 -461.233671229159 452.881217508271
0.0209500001445413 0.05444999679178 0.00564999974519014 16 -0.00924455324808759 -0.336515121691239 -0.0509366614938093 0.340473835082465 -9.40225465138231 10.2731954490355 0.316580282685167 -21.277601410268 5.708370967229 1.55153257010813 0.83731913691737 -17.8361854156543 -0.640293022763593 -19.3877179857625 -0.520738854232203 -31.5507968593035 37.0352205354147 -196.302118162218 194.690912315587
0.0237500001862645 0.05444999679178 0.00564999974519014 16 -0.0366682561238607 -0.378521242004936 -0.0497070444617808 0.38352794151828 -11.6831859636305 1.32076696313366 -0.36065016468817 -7.921023478318 7.43985334499748 2.16752675990077 5.40062658840744 -3.25243132648534 1.47298249834747 -5.41995808638611 -5.76127675309561 -9.24179044145167 12.1646597177089 33.4103474264401 -73.7122499258638