TITLE="DynamicStudio Exported Data"
VARIABLES= "X (m)[m]" "Y (m)[m]" "Z (m)[m]" "Status[-]" "U[m/s]" "V[m/s]" "W[m/s]" "Length[m/s]" "dU/dX[1/s]" "dU/dY[1/s]" "dU/dZ[1/s]" "dV/dX[1/s]" "dV/dY[1/s]" "dV/dZ[1/s]" "dW/dX[1/s]" "dW/dY[1/s]" "dW/dZ[1/s]" "Vorticity X[1/s]" "Vorticity Y[1/s]" "Vorticity Z[1/s]" "Vorticity Magnitude[1/s]" "Lambda-2[1/s²]" "Q-Criterion[1/s²]"
ZONE T="DynamicStudio Data" I=26 J=26 F=POINT
-0.0350500006899238 0.0600499968752265 0.00564999974519014 16 -0.251721750299136 0.415109088003713 0.386775100745726 0.620704739045709 17.0722840618628 -15.1686367875943 3.24896559717994 -4.8926964190291 -16.7386569910833 1.12513649524912 -21.9750063487308 24.9722565400959 4.5645676426558 23.8471200448468 25.2239719459108 10.2759403685651 36.2012271286449 376.481752297864 -315.16093610323
-0.0322500006482005 0.0600499968752265 0.00564999974519014 16 -0.203064769307772 0.401384120698397 0.32463736065353 0.554737711729547 27.2851752575035 -12.543939795459 2.5389349271492 -8.28001984585782 -15.6917181465051 0.844580720758978 -34.0994439626521 22.1534863242038 5.28869274790512 21.3089056034449 36.6383788898013 4.26391994960119 42.5983717884354 345.498298240232 -402.835255798175
-0.0294500006064773 0.0600499968752265 0.00564999974519014 16 -0.0927026995023092 0.371482674051658 0.188678135055428 0.426840258485045 39.0061117375847 -7.2103083064515 1.41442652517158 -14.6201117589612 -13.0877424621294 0.46233815320154 -49.2945286542027 15.8586263969179 5.96783054294959 15.3962882437164 50.7089551793742 -7.40980345250972 53.5102701756608 239.31200480205 -398.84958150826
-0.026650000564754 0.0600499968752265 0.00564999974519014 16 0.024473930199941 0.325099842955436 0.0348374474421144 0.327875782718643 37.3400867886268 -1.16326517451244 0.197540421702333 -19.1960696418168 -9.76228250220405 0.163930272877491 -46.7321365197894 7.14407101523131 6.20700399653122 6.98014074235381 46.9296769414918 -18.0328044673044 50.757255437739 108.098367840721 -207.618697323664
-0.0238500005230308 0.0600499968752265 0.00564999974519014 16 0.125249622662862 0.269822812730369 -0.091366072879949 0.311190580706456 26.0141429118478 3.87793508685061 -0.79518273943553 -20.545767155606 -6.73955440264497 0.0356686407262968 -29.2656451321217 -2.17092745840994 5.94969164185857 -2.20659609913624 28.4704623926861 -24.4237022424566 37.575970066337 16.8806901383877 -4.16482373607639
-0.0210500004813075 0.0600499968752265 0.00564999974519014 16 0.17657817085584 0.215064244911894 -0.147010880179393 0.314713645642253 13.1474950574633 7.43524299291855 -1.44491460800414 -19.2913423519341 -4.27144601793233 0.0129755672514426 -10.9182023613463 -10.0444124163887 5.0436736451868 -10.0573879836402 9.47328775334218 -26.7265853448527 30.0866182564074 42.968755844373 116.399359115048
-0.0182500004395843 0.0600499968752265 0.00564999974519014 16 0.203422546784083 0.1658537900995 -0.167417586567268 0.311314729048435 3.06422504016816 9.89811861004585 -1.73336487223183 -17.8026842741213 -2.13318025074449 0.0379462074065742 2.64889876009448 -14.5929853041583 3.31029219210707 -14.6309315115648 -4.38226363232631 -27.7008028841672 31.6323074066182 -174.08830460553 177.903822987737
-0.015450000397861 0.0600499968752265 0.00564999974519014 16 0.197346039613088 0.11922989718422 -0.140075532154491 0.269782101781964 -2.50344949163207 11.4510257633398 -1.90315351365609 -17.9722891103456 -0.160470750182742 0.108613189842574 8.05852172270136 -14.9311762086316 1.54725047576716 -15.0397893984742 -9.96167523635745 -29.4233148736853 34.5132104681837 -219.639020287595 219.039450792725
-0.0126500003561378 0.0600499968752265 0.00564999974519014 16 0.190916085243225 0.0687967444863413 -0.120943264513044 0.236239744513046 -2.84218944749709 12.0396635578504 -2.08437596963614 -20.5404704506786 1.46685204183472 0.205095926799389 7.57136910667862 -12.5440386895776 1.14103955275532 -12.749134616377 -9.65574507631477 -32.580134008529 36.293787050389 -257.74060192891 259.916278837604
-0.0098500003144145 0.0600499968752265 0.00564999974519014 16 0.181409723758698 0.00690738040022552 -0.0904221823582581 0.202813635736433 -1.86556831139479 11.5865320724269 -2.19418431600087 -24.161698244704 2.64541376025713 0.258689944274708 5.7611546055425 -9.89004206847366 2.75531075947223 -10.1487320127484 -7.95533892154337 -35.7482303171309 38.0028965952576 -278.615628425131 292.363297619981
-0.00705000027269125 0.0600499968752265 0.00564999974519014 16 0.178454535802205 -0.0646702926493405 -0.0795406567152046 0.20580326569425 -2.14385945289307 10.0624368697089 -2.18461864580452 -28.2942022008623 3.71799240327709 0.0945874612577627 6.12980351439958 -8.30196061052378 5.70309435047942 -8.39654807178155 -8.3144221602041 -38.3566390705712 40.1355627364299 -270.600327040021 299.891743431931
-0.004250000230968 0.0600499968752265 0.00564999974519014 16 0.16587562084198 -0.149937378499356 -0.0485750718197475 0.228813191628597 -8.11647614836581 7.19974951526849 -2.11055844479015 -30.4347958196387 5.33920152964242 -0.409231363165154 11.2013842169288 -6.95161261768995 7.89952032299603 -6.54238125452479 -13.311942661719 -37.6345453349072 40.4520651200113 -176.550267884918 174.644625434577
-0.00145000018924474 0.0600499968752265 0.00564999974519014 16 0.126162728468577 -0.232420795177265 -0.0116784568422008 0.264712762139801 -18.6155197861386 2.62873047031816 -2.09586221026066 -27.206514873498 7.66468048394793 -1.22766944168702 19.7610411709264 -3.90292347860681 7.45295863570601 -2.67525403691979 -21.856903381187 -29.8352453438161 37.0813035680018 25.9896704377504 -116.154649372104
0.0013499998524785 0.0600499968752265 0.00564999974519014 16 0.0514087510108947 -0.299276699276913 0.0660480155004188 0.310759943947297 -30.4905342785524 -3.64215223101974 -2.04605545815459 -12.4785639663612 9.92817731760947 -2.15338032863682 27.764469217752 1.95358627872719 3.93266713123088 4.10696660736401 -29.8105246759066 -8.83641173534144 31.3626645635111 118.591100411462 -368.014707728408
0.00414999989420176 0.0600499968752265 0.00564999974519014 16 -0.0576940417289733 -0.300198575629426 0.147901275280941 0.339591776241253 -37.4989015567797 -10.6857268528331 -1.8144839778986 15.3882810591977 10.4893798113102 -2.86795926797426 31.894045068635 10.0709346142105 -1.04340618532552 12.9388938821847 -33.7085290465336 26.0740079120308 44.5368812780159 29.6527355153187 -113.969086719473
0.006949999935925 0.0600499968752265 0.00564999974519014 16 -0.171061726013819 -0.215372072138513 0.251799787981436 0.372894592065318 -34.4249104770475 -16.6022393093362 -1.41750605113382 46.4433910967903 8.02405019006577 -3.23094276770659 31.6702155779368 18.2202302034897 -4.30767849654964 21.4511729711963 -33.0877216290706 63.0456304061265 74.3619637835698 6.92001770007951 712.324745242651
0.00974999997764826 0.0600499968752265 0.00564999974519014 16 -0.258739725748698 -0.0476608114006619 0.336387501019829 0.427053099117951 -20.3293011662949 -19.6742125826517 -1.16397346453763 64.6647995524961 2.75696415422137 -3.18610739998303 24.1194808574209 23.7930151376003 -3.85379434700805 26.9791225375833 -25.2834543219586 84.3390121351478 92.0879746942081 -1000.46096957121 1387.78356874965
0.0125500000193715 0.0600499968752265 0.00564999974519014 16 -0.287241324186325 0.135549204780105 0.398711183279908 0.509756582016649 0.903317161123039 -19.0119292769754 -1.32611317446657 59.0713393810691 -3.59872917335302 -2.6912430479621 10.1989265387854 25.1245554815469 -0.092123329761379 27.815798529509 -11.525039713252 78.0832686580445 83.6871676695455 -1202.75451678071 1201.19885923957
0.0153500000610948 0.0600499968752265 0.00564999974519014 16 -0.249444326957067 0.272669327602877 0.401218016500352 0.545478625824098 22.4521270943498 -14.9181551604886 -1.75933480479458 36.2818748036049 -8.64597237469007 -1.79864625199274 -12.5444619531188 21.8026023557658 3.92271851041268 23.6012486077585 10.7851271483242 51.2000299640935 57.4001826806746 -204.158980117299 418.441086388594
0.018150000102818 0.0600499968752265 0.00564999974519014 16 -0.151949644287427 0.333243038272485 0.323486606623628 0.488654480815456 37.0926503379421 -8.54911578586311 -2.09701600951996 11.3399081237399 -11.1326766198247 -0.714884799002749 -33.8150591562112 14.5573575026062 5.40399673725424 15.272242301609 31.7180431466913 19.889023909603 40.4332649937052 53.9374637895108 -236.210567182905
0.0209500001445413 0.0600499968752265 0.00564999974519014 16 -0.0286387916405995 0.335659352330258 0.194962131468734 0.389226943954596 40.5762041238799 -1.40646707595165 -1.92683351621966 -4.79490715314422 -11.1279966676189 0.199958791804554 -45.6370841825605 5.03484817149939 4.06093970867496 4.83488937969483 43.7102506663408 -3.38844007719257 44.1071841629565 128.525215616982 -427.630173852661
0.0237500001862645 0.0600499968752265 0.00564999974519014 16 0.089615060488383 0.3097226890681 0.0434220627850542 0.325337484354971 32.194262365759 4.887680825751 -1.17431311995697 -11.9819541680129 -9.53317982225856 0.664968128775657 -42.5033641886443 -4.28897792062237 1.52613875865751 -4.95394604939803 41.3290510686873 -16.8696349937639 44.9134348332582 62.7568503209569 -260.825992939753
0.0265500002279878 0.0600499968752265 0.00564999974519014 16 0.16372396171093 0.272647887470812 -0.0639436339883711 0.324393579634766 18.462872908112 9.32840468682714 -0.0399928947953265 -14.7390216577853 -7.331983683118 0.779339801560404 -30.4922854647746 -10.7513392691407 -0.310096438297492 -11.5306790707011 30.4522925699792 -24.0674263446124 40.4912298337858 3.83322075941838 5.82989855007702
0.029350000269711 0.0600499968752265 0.00564999974519014 16 0.201836619774501 0.231853941228474 -0.138378412572589 0.337109561138931 6.82636824311846 11.8439156393762 1.11305041442736 -14.5423257092626 -5.21988310274794 0.857366000919111 -19.5721843414322 -13.4619859969172 -1.18704474896589 -14.3193519978363 20.6852347558596 -26.3862413486388 36.457598810832 -162.785369932892 168.024941896366
0.0321500003114343 0.0600499968752265 0.00564999974519014 16 0.206919601758321 0.195096699082448 -0.176627108717415 0.33477690947639 0.926844667255101 13.012939473983 1.87079652957969 -10.1329352218479 -3.73620001667742 1.00363893957945 -9.97539819980471 -13.621682911914 -1.30807690436813 -14.6253218514935 11.8461947293844 -23.1458746958309 29.8322624730571 -146.428147955522 164.404440249554
0.0349500003531575 0.0600499968752265 0.00564999974519014 16 0.209387815395991 0.177668575928546 -0.192587297034139 0.3354090742477 0.440965199963874 13.49116209403 2.20207641236742 -6.60717456877229 -3.05118665022654 1.14533798328985 -6.17309926472881 -13.1217939000643 -1.12240722134942 -14.2671318833541 8.37517567709622 -20.0983366628022 26.0314762626053 -100.310100334992 119.345252609318
-0.0350500006899238 0.0572499968335032 0.00564999974519014 16 -0.207043616771698 0.462467889735029 0.314196011225771 0.596206962180132 13.9638217480124 -24.8825121688468 3.35390034145407 -5.76039713817015 -22.627162448812 1.46831868394796 -18.2621532539368 42.4944214593884 3.83747050525849 41.0261027754405 21.6160535953909 19.1221150306767 50.160244868085 288.600370177316 -493.686040361078
-0.0322500006482005 0.0572499968335032 0.00564999974519014 16 -0.164757144848506 0.447344417640464 0.258991538141854 0.542529779460815 22.2165517480263 -19.6526335521312 2.78530296754881 -10.1104828122258 -20.8564455242564 1.19072848050878 -28.2027002707836 36.2996501412192 4.53678130865284 35.1089216607104 30.9880032383324 9.54215073990539 47.7906409835637 673.423345984037 -620.555373018098
-0.0294500006064773 0.0572499968335032 0.00564999974519014 16 -0.0721052745978037 0.408457328216755 0.142222741589261 0.438479039207076 32.2101793670604 -9.5659548351322 1.80913108765246 -17.5429505356183 -16.9711356760232 0.682665645929544 -40.575241780151 23.7819062177277 5.39658905761051 23.0992405717981 42.3843728678035 -7.97699570048615 48.9248652404518 446.011062930171 -575.048699330683
-0.026650000564754 0.0572499968335032 0.00564999974519014 16 0.028288156191508 0.352173029034566 0.0133461481596654 0.353559304545639 31.3968586536149 1.15752462642437 0.63755419042238 -22.142263635094 -12.2105895593973 0.209696430067696 -37.5315914008364 8.7669260186185 6.03121381263654 8.5572295885508 38.1691455912588 -23.2997882615184 45.5300997849716 146.20481501741 -219.937417575242
-0.0238500005230308 0.0572499968335032 0.00564999974519014 16 0.112854410807292 0.288062970643126 -0.0830128823772733 0.320324104205391 21.9987242264597 9.43577135970346 -0.411248883934063 -23.1062122794738 -7.71152647543859 -0.0427596646816539 -21.5629911402341 -5.03127360100834 6.07321276449213 -4.98851393632669 21.1517422563001 -32.5419836391773 39.1313451205342 -5.70073663374659 126.067491897194
-0.0210500004813075 0.0572499968335032 0.00564999974519014 16 0.156447920401891 0.226858906890702 -0.117277805952666 0.299491233933135 10.6628240404247 14.7500917601075 -1.11510298726304 -21.4577778409139 -3.80734865749523 -0.102090225773606 -5.71245347745181 -15.3151814907975 5.09620939358945 -15.2130912650239 4.59735049018877 -36.2078696010214 39.5421749327493 -240.319673616244 302.910537096601
-0.0182500004395843 0.0572499968335032 0.00564999974519014 16 0.174778847694397 0.171868722009628 -0.121825295311088 0.273729621678469 1.50380866164727 17.9742206166245 -1.41138811044808 -19.6949232615183 -0.461429436847866 -0.00416366402970714 4.34282564308353 -20.6986662950912 2.87742971755376 -20.6945026310615 -5.75421375353161 -37.6691438781427 43.3628621700708 -355.821065960329 362.349597290627
-0.015450000397861 0.0572499968335032 0.00564999974519014 16 0.165768156449 0.11975991081136 -0.098571236828963 0.227019397100857 -3.14730220174979 19.6608539874984 -1.51031696248859 -19.4839113311082 2.28486193779111 0.211359231363993 6.69180838967994 -20.9131495435677 0.352719657711276 -21.1245087749317 -8.20212535216853 -39.1447653186066 45.2308786463809 -388.442338170775 390.101924077666
-0.0126500003561378 0.0572499968335032 0.00564999974519014 16 0.156455193758011 0.0645224131707801 -0.0872126053188307 0.190387520551468 -2.62524648427241 19.8915511362213 -1.5918336837572 -21.474366009088 4.18793878629072 0.465987750894962 5.11541328516273 -17.8861928953817 -0.725831790543848 -18.3521806462767 -6.70724696891993 -41.3659171453093 45.7485387487759 -421.347283555283 431.507460234059
-0.0098500003144145 0.0572499968335032 0.00564999974519014 16 0.149140938123067 -6.84191519394525E-05 -0.0674066630812983 0.163666375084086 -0.811056177508121 18.7711398675844 -1.66738121281422 -24.6816447683562 5.24892696221159 0.624112756248608 3.94359197570372 -14.497339984395 0.602914166844637 -15.1214527406436 -5.61097318851794 -43.4527846359406 46.34960459084 -444.984908320555 477.344532624807
-0.00705000027269125 0.0572499968335032 0.00564999974519014 16 0.149557957649231 -0.0744663412950467 -0.0584228547670258 0.176991662631912 -0.320923181701717 16.4017231967457 -1.7131989300413 -28.9720919041459 6.08923697480744 0.467924965495397 5.3254797684382 -12.4048140945781 3.67034826232369 -12.8727390600735 -7.0386786984795 -45.3738151008917 47.6868273796766 -437.708205217756 509.337903493879
-0.004250000230968 0.0572499968335032 0.00564999974519014 16 0.144778227011363 -0.163553161070061 -0.0299125742027536 0.220465719802418 -4.85181382590241 12.2683537212378 -1.70159103208114 -31.9374731009989 7.72940091732952 -0.109249709251432 9.74148108869674 -10.590703217996 6.22186807633989 -10.4814535087445 -11.4430721207779 -44.2058268222367 46.850399061853 -326.701919563587 387.641555602348
-0.00145000018924474 0.0572499968335032 0.00564999974519014 16 0.118028322855632 -0.254081028886139 0.000428365015153143 0.280157166127405 -13.6335541901811 5.54539881780031 -1.66643690495607 -29.1676718467693 10.4180755205259 -1.0169411369438 16.2066765996603 -6.59266523152553 6.21685358534638 -5.57572409458174 -17.8731135046164 -34.7130706645696 39.4402606544531 -17.8569088076216 20.0238672308469
0.0013499998524785 0.0572499968335032 0.00564999974519014 16 0.0608922755718231 -0.327299367558638 0.0614328949236369 0.338536180942743 -23.9695237482162 -3.86728307471417 -1.51037632764953 -13.9098692207657 13.056038803648 -2.08812083714365 21.6537691964369 1.12022944194429 3.19242566065798 3.20835027908794 -23.1641455240864 -10.0425861460516 25.4504358680798 207.963416452398 -366.53640851608
0.00414999989420176 0.0572499968335032 0.00564999974519014 16 -0.0258623305956522 -0.333177916470837 0.119678577991823 0.354963866045309 -31.0466821749671 -14.4926547795919 -1.14966098812159 16.2735414646182 13.4150161547319 -3.10237276162233 24.4704103387988 11.9487814146012 -1.36213781462023 15.0511541762235 -25.6200713269204 30.76619624421 42.7724692783826 29.348028698447 -91.4259152939265
0.006949999935925 0.0572499968335032 0.00564999974519014 16 -0.122191514968872 -0.239576209698183 0.198050705708932 0.333993426006474 -29.760736120616 -23.6368776990016 -0.680639992658986 49.7653486646082 10.0295747219084 -3.96878667113073 24.8919830552012 23.4342168040798 -4.51820747276245 27.4030034752106 -25.5726230478602 73.4022263636098 82.4182654764401 -422.797768357946 1076.9073006751
0.00974999997764826 0.0572499968335032 0.00564999974519014 16 -0.199620125293732 -0.0590791646236903 0.265904515111276 0.337703647110127 -18.6526229811766 -28.9537391494461 -0.402402818592923 69.534837413627 3.59327463824116 -4.47034492553041 19.8518124651193 32.6225227410802 -4.35764044132558 37.0928676666106 -20.2542152837123 98.4885765630732 107.173288565351 -1997.8827287742 2165.71512682128
0.0125500000193715 0.0572499968335032 0.00564999974519014 16 -0.231014360189438 0.146526743008678 0.323379943145749 0.42357090157306 -0.963222918840853 -28.9846383564926 -0.57216209526898 63.6971903440296 -3.78404974332541 -4.21626136465467 9.78528022679829 36.8599906640533 -1.12839282966631 41.076252028708 -10.3574423220673 92.6818287005221 101.904153317977 -2015.28011480579 2016.25181929337
0.0153500000610948 0.0572499968335032 0.00564999974519014 16 -0.20520138223966 0.296624696710302 0.335771424984947 0.492784200038889 17.5201824635571 -23.5507450178982 -1.05211410345463 39.2817053006984 -9.72731680293373 -3.10921443991765 -8.38880996465474 34.2253026961701 2.53405570547698 37.3345171360877 7.33669586120011 62.8324503185966 73.4548166493082 -900.03741891246 872.024435904533
0.018150000102818 0.0572499968335032 0.00564999974519014 16 -0.127087873617808 0.366706043119872 0.279862389355609 0.478484698456659 30.2283916671151 -13.8775548411537 -1.47147940141738 12.6690963512873 -13.2274341125298 -1.48501592378253 -25.8458175156586 24.5154906848734 4.10354527944466 26.0005066086559 24.3743381142413 26.546651192441 44.4393900942311 0.195693348784871 -155.889474623208
0.0209500001445413 0.0572499968335032 0.00564999974519014 16 -0.0247520530223846 0.367261773714951 0.180000252296359 0.409748661239823 33.6590664649243 -2.47704141467486 -1.41096937895506 -5.19103027014179 -14.1620592071483 -0.0452357410499863 -35.9039690961522 9.98730373494809 3.29643943126501 10.0325394759981 34.4929997171971 -2.71398885546693 36.0247777694134 212.550217636522 -475.477003473453
0.0237500001862645 0.0572499968335032 0.00564999974519014 16 0.0744651353359223 0.337331881383434 0.0584361528589701 0.350360726308245 26.9201777234505 7.61613158602178 -0.763717304533396 -13.2899115683222 -12.9895843049615 0.698243438851005 -33.9348697398423 -5.20636376955487 1.58126793907676 -5.90460720840587 33.171152435309 -20.906043154344 39.6516378040473 101.92632491314 -248.717539932442
0.0265500002279878 0.0572499968335032 0.00564999974519014 16 0.136812105576197 0.293056393835383 -0.0297822183801569 0.324786980545149 15.3678140840899 14.5050337653271 0.270808209133303 -16.5974995368063 -10.5568810720114 0.804039168449935 -25.5349282233258 -16.5780950102995 0.562026269856968 -17.3821341787494 25.8057364324591 -31.1025333021334 43.9936608983602 -25.2237792175089 101.459482223238
0.029350000269711 0.0572499968335032 0.00564999974519014 16 0.167476623455683 0.245666248852697 -0.0972616617984992 0.312826079611784 5.52200280652959 18.0659543750884 1.31502939379953 -16.1921055435795 -7.75265688546361 0.676647327559725 -18.1244632267537 -22.079624457168 0.381872281567828 -22.7562717847277 19.4394926205533 -34.2580599186679 45.490179690522 -274.493342847304 287.638142717305
0.0321500003114343 0.0572499968335032 0.00564999974519014 16 0.170739561716716 0.204509149171257 -0.136021430052545 0.29912843305762 0.569832789543241 19.3376570778535 1.97618032211366 -11.1787887345432 -5.55158456714157 0.60958015176919 -10.4412195939368 -23.0082918727154 0.668170285782888 -23.6178720244846 12.4173999160505 -30.5164458123967 40.5370098140084 -217.044789401624 244.338580417277
0.0349500003531575 0.0572499968335032 0.00564999974519014 16 0.170796231428782 0.184780468010964 -0.154992685995336 0.295529874531618 0.178676545322723 19.6226909670968 2.2416177507379 -7.2836886136145 -4.5085641616491 0.641097172576316 -7.16327325270083 -22.3790421532092 0.935725358323704 -23.0201393257856 9.40489100343873 -26.9063795807113 36.6378499847693 -143.211323748963 168.47287158149
-0.0350500006899238 0.05444999679178 0.00564999974519014 16 -0.102276200056076 0.545793013152046 0.134311512570518 0.571305537092439 6.97049167677972 -39.6142073971344 3.37086972443717 -7.31791937201097 -21.3050753976181 2.35950783817217 -9.64420790293066 70.8401184959199 1.69218818071881 68.4806106577477 13.0150776273678 32.2962880251234 76.8247128332164 76.6141894512039 -597.29568601054
-0.0322500006482005 0.05444999679178 0.00564999974519014 16 -0.0829192837079367 0.523947459387333 0.108206120113997 0.541391828751786 11.0783544861759 -31.3747787282554 3.0498168021113 -13.1287072494376 -19.538393807015 2.01001320912941 -14.7505422378273 60.7100833307975 2.48105022469354 58.700070121668 17.8003590399386 18.2460714788178 63.9958603243179 479.954157271732 -726.394937946717
-0.0294500006064773 0.05444999679178 0.00564999974519014 16 -0.0394735797246297 0.467687728905779 0.051134869690674 0.472127895981167 17.1208106209335 -15.2338914372771 2.32074477223014 -22.2136619732604 -15.7347677803944 1.20504973710938 -20.7440601146222 39.944487555804 3.93776662488509 38.7394378186946 23.0648048868524 -6.9797705359833 45.6228721554448 629.675223916507 -602.328006181637
-0.026650000564754 0.05444999679178 0.00564999974519014 16 0.0163343540827434 0.393303347578816 -0.0132691678560029 0.393865973594564 18.1009623170938 2.42789418381421 1.25349016677533 -26.9789951772113 -10.9878709172609 0.363045235357559 -17.346861984517 14.943556673065 5.53762427744261 14.5805114377074 18.6003521512923 -29.4068893610255 37.7270401148672 93.8209590610407 -77.6803304465948
-0.0238500005230308 0.05444999679178 0.00564999974519014 16 0.06707391222318 0.311395654405157 -0.0558997194705686 0.323405228653197 12.9762973121928 16.4679707013231 0.151794179786048 -27.5277461442207 -6.22866859435547 -0.160430694147755 -5.60030301596923 -7.40566124789251 6.27406665511843 -7.24523055374476 5.75209719575528 -43.9957168455438 44.9577923021093 -286.094863175036 414.498131804954
-0.0210500004813075 0.05444999679178 0.00564999974519014 16 0.0938903482755025 0.235371954218523 -0.0557143712680166 0.259459911157258 5.40166334847969 25.437237907131 -0.627444497761035 -25.3957375293764 -1.77335285908948 -0.316738238363774 4.03990961781346 -22.8368045776335 5.25087040646953 -22.5200663392698 -4.6673541155745 -50.8329754365074 55.7936284363532 -636.12881958889 650.771680202531
-0.0182500004395843 0.05444999679178 0.00564999974519014 16 0.100180155038834 0.167229013364219 -0.0422418264206499 0.199464228055376 -1.29678434873918 30.2748627529455 -0.914526841324648 -23.1558471530967 2.27961150030413 -0.122906600382411 6.90064487312964 -29.7635020986512 2.23696398763515 -29.6405954982688 -7.81517171445429 -53.4307099060423 61.5993715185637 -695.167305179132 702.935173018015
-0.015450000397861 0.05444999679178 0.00564999974519014 16 0.0874620187282562 0.10557030662351 -0.0238578519715035 0.139154200300594 -3.91955561417153 32.1610758048798 -0.852695680156612 -22.0900807686283 5.60041345476378 0.323624239174075 3.90588688197596 -29.3209165725168 -1.47538953993605 -29.6445408116909 -4.75858256213257 -54.2511565735081 62.0050876743186 -687.281450366254 698.829202250451
-0.0126500003561378 0.05444999679178 0.00564999974519014 16 0.0780623197555541 0.0444252314701043 -0.0246730654665589 0.0931455158142775 -1.74564299129884 31.8230285756051 -0.69275250779177 -22.9192545739053 7.74839460860154 0.843525784940307 0.536188648835194 -24.9827270766713 -3.61153086276576 -25.8262528616116 -1.22894115662696 -54.7422831495104 60.5410868556183 -678.08577715018 715.600060265655
-0.0098500003144145 0.05444999679178 0.00564999974519014 16 0.077401967048645 -0.0215600449576353 -0.0207334113322819 0.0829805663215694 1.4252528986309 29.8275272751294 -0.621726390111829 -25.1724913269315 8.62314155607319 1.18117574549338 0.656003599008787 -20.5047669746355 -2.85317533421059 -21.6859427201289 -1.27772998912062 -55.0000186020608 59.1347169758413 -690.635834738407 759.081086095469
-0.00705000027269125 0.05444999679178 0.00564999974519014 16 0.0854677883783976 -0.0965540175433368 -0.0159977848389341 0.129935946811521 3.25080062784835 26.388911060279 -0.691258551097749 -29.3975273549057 8.69911355281239 1.05040043113669 3.58611283770054 -17.5703375570198 0.1831728499887 -18.6207379881565 -4.27737138879829 -55.7864384151847 58.9674020139303 -718.82511674764 827.171539706896
-0.004250000230968 0.05444999679178 0.00564999974519014 16 0.0944714959462483 -0.189498130890618 0.00820813751410848 0.211900398014752 1.3102672030181 20.7884756973163 -0.753022523995341 -33.3073701284063 8.85428208845746 0.378421200193763 6.84696556368132 -14.7505659778489 3.12044389430878 -15.1289871780427 -7.59998808767666 -54.0958458257226 56.6833891679614 -604.513534099023 746.466681829004
-0.00145000018924474 0.05444999679178 0.00564999974519014 16 0.0923128954569499 -0.290815229548413 0.0282633632677607 0.306421255966598 -4.07207201242906 11.7878673940813 -0.657267069318032 -31.0077627050158 9.37559537091494 -0.631000065617395 9.63457938650776 -9.28199122615141 3.81214041277394 -8.65099116053402 -10.2918464558258 -42.7956300990971 44.8578611517388 -256.061371797151 348.030625853798
0.0013499998524785 0.05444999679178 0.00564999974519014 16 0.0716689570744833 -0.373735433502297 0.0622321822108158 0.385600127289935 -11.2207808175472 -1.10967582182525 -0.27771944741967 -15.0769298552656 9.74478358053919 -1.88135021222583 10.4605914078964 0.770389102071794 1.71714577368023 2.65173931429763 -10.7383108553161 -13.9672540334403 17.816487494763 110.307494830073 -124.254606250735
0.00414999989420176 0.05444999679178 0.00564999974519014 16 0.0290138304233551 -0.384707855613281 0.0817543423764679 0.394367479673227 -17.8496176998942 -16.4301115226894 0.341964454749338 17.9923929277662 8.83401540080711 -3.31406192802511 10.453829117362 15.1515961393922 -1.97267502643339 18.4656580674173 -10.1118646626127 34.4225044504556 40.3502062876933 -71.1193278564145 202.356568147738
0.006949999935925 0.05444999679178 0.00564999974519014 16 -0.0317321912447612 -0.275422097921837 0.116840472381252 0.300858704330013 -19.2637559822115 -30.9799332167573 0.973045589715271 54.2233053407635 6.04264869432717 -4.94298124987957 10.8281030589295 31.746621967622 -4.8663293242567 36.6896032175015 -9.85505746921426 85.2032385575208 93.2890186606602 -1650.0693432305 1774.15524961562
0.00974999997764826 0.05444999679178 0.00564999974519014 16 -0.085467832883199 -0.0767746889467041 0.145807545748151 0.185631203513075 -13.585766557213 -41.2269083286809 1.33102660168384 75.6830215381614 1.87280797730467 -6.31023478263703 9.40907904295043 47.0649294490623 -5.34506474536183 53.3751642316993 -8.07805244126659 116.909929866842 128.77148282704 -3417.11287653781 3441.80700132289
0.0125500000193715 0.05444999679178 0.00564999974519014 16 -0.115168217420578 0.157616556418749 0.178938134488223 0.26481229793056 -3.07234061649927 -44.1537478479397 1.16851273069868 69.6484025997264 -2.84926402135996 -6.47992852210033 6.40544069044507 56.6500344846112 -3.37486178065201 63.1299630067116 -5.2369279597464 113.802150447666 130.244950344332 -3443.66106151189 3463.57984839478
0.0153500000610948 0.05444999679178 0.00564999974519014 16 -0.108269429604212 0.323513393516963 0.193669996151972 0.392289755896311 8.28145368782025 -38.2397947131388 0.593538067905473 43.5910300605672 -7.16653397731723 -5.12264965671856 -1.69677152242476 55.9725235466177 -0.667920556151995 61.0951732033363 2.29030959033024 81.8308247737059 102.14768519115 -1888.47581809918 1894.55277084475
0.018150000102818 0.05444999679178 0.00564999974519014 16 -0.0699355427424113 0.410797376372696 0.174744533037689 0.45186404636785 15.8903923829172 -24.3362568299486 -0.028582555481199 15.3492696633742 -10.6559147396768 -2.71517978205054 -9.77057667796798 42.9150562779938 0.962412044554419 45.6302360600443 9.74199412248678 39.6855264933228 61.2532930170302 -344.573038255199 325.497651700031
0.0209500001445413 0.05444999679178 0.00564999974519014 16 -0.0150453964869182 0.415968633658874 0.134503556582301 0.437432823273205 18.5065111314706 -6.24621563877576 -0.235425242750471 -4.83686867413135 -12.7556245531556 -0.466416575443865 -14.9953340848114 20.4593673788875 1.24788838125062 20.9257839543314 14.7599088420609 1.40934696464441 25.6462395293356 202.302203329389 -253.08546009236
0.0237500001862645 0.05444999679178 0.00564999974519014 16 0.0424482075373331 0.38535603060096 0.0793781982864797 0.39572972974856 15.122833593086 10.6105108243458 0.149706615831279 -14.6900927148701 -12.8820799048049 0.712926648574193 -14.863070230134 -4.32739963765868 1.23651321417977 -5.04032628623287 15.0127768459653 -25.3006035392159 29.848097043983 33.4576852254472 -30.8632229604135