TITLE="DynamicStudio Exported Data"
VARIABLES= "X (m)[m]" "Y (m)[m]" "Z (m)[m]" "Status[-]" "U[m/s]" "V[m/s]" "W[m/s]" "Length[m/s]" "dU/dX[1/s]" "dU/dY[1/s]" "dU/dZ[1/s]" "dV/dX[1/s]" "dV/dY[1/s]" "dV/dZ[1/s]" "dW/dX[1/s]" "dW/dY[1/s]" "dW/dZ[1/s]" "Vorticity X[1/s]" "Vorticity Y[1/s]" "Vorticity Z[1/s]" "Vorticity Magnitude[1/s]" "Lambda-2[1/s²]" "Q-Criterion[1/s²]"
ZONE T="DynamicStudio Data" I=26 J=26 F=POINT
-0.0350500006899238 0.0600499968752265 0.00564999974519014 16 -0.16569031337897 0.411303659260351 0.344403127350379 0.561460144798629 16.057401467028 -5.87354802185731 -2.55194283648797 -8.67283476067433 -14.2970863916397 5.27530969067438 -23.258341562981 9.3941821697284 7.52980399158426 4.11887247905402 20.706398726493 -2.79928673881702 21.2968557530293 285.848944638954 -376.170718346859
-0.0322500006482005 0.0600499968752265 0.00564999974519014 16 -0.118532985250155 0.386041795726245 0.27683398850883 0.489607387437694 24.2973150878835 -3.45097818251364 -2.70046583004194 -13.1022543232206 -13.2033785976669 4.21276198009888 -35.6467299084826 8.09293591511191 6.2438026502199 3.88017393501303 32.9462640784407 -9.65127614070692 34.5493733320372 232.058264062369 -427.110282565475
-0.0294500006064773 0.0600499968752265 0.00564999974519014 16 -0.0228778847058615 0.338476482797996 0.136978995877629 0.365859224740282 35.725495790669 1.14868243124583 -2.65411905655561 -20.841359473639 -10.4228090772196 2.57159127994319 -52.5681977109174 5.21344568178492 3.39812689596064 2.64185440184173 49.9140786543618 -21.9900419048849 54.6072942524434 120.610358916351 -415.367284850534
-0.026650000564754 0.0600499968752265 0.00564999974519014 16 0.091829682191213 0.272905396630134 -0.030887372456491 0.289592948495739 34.1271717830597 6.03502446455458 -2.13117398812088 -23.3057335580875 -6.4492155815478 1.25228579150277 -50.1767541345818 1.44193292600345 0.0156267489136066 0.189647134500685 48.0455801464609 -29.3407580226421 56.2964814086001 29.1660460703149 -187.751404693508
-0.0238500005230308 0.0600499968752265 0.00564999974519014 16 0.177951215108236 0.214390835815963 -0.15719618438355 0.319907339436143 24.1805077489945 10.0782762361586 -1.37681762691064 -21.6152137218398 -2.24887800052475 0.674860592915792 -36.9459323362467 -3.17043480474084 -2.02940508403599 -3.84529539765664 35.5691147093361 -31.6934899579984 47.795664276364 9.54717302333308 70.2287125902718
-0.0210500004813075 0.0600499968752265 0.00564999974519014 16 0.2353708811601 0.159170868442282 -0.249351340003001 0.378035590679032 12.5198676183855 13.3206942277286 -0.742278745542525 -18.7741580900706 1.37295343766014 0.512413921207042 -22.03802225494 -8.56179923115249 -1.74569354483312 -9.07421315235953 21.2957435093975 -32.0948523177992 39.5718281262547 -68.5291644347256 231.050236152507
-0.0182500004395843 0.0600499968752265 0.00564999974519014 16 0.254549026886622 0.115027873868821 -0.288303256752358 0.401429180192127 3.20934579118799 15.9203305715178 -0.517245646368288 -19.593645535054 3.89777466757403 0.315055470023937 -10.3916834436862 -13.5368349196833 0.477596126436118 -13.8518903897072 9.87443779731791 -35.5139761065718 39.3779365645245 -309.932669600221 326.730754813374
-0.015450000397861 0.0600499968752265 0.00564999974519014 16 0.257755585511525 0.0523858138154416 -0.310648766712596 0.407044065933349 -2.16034907762448 17.4296908558194 -0.511587308931441 -24.1776807627689 5.07192646135165 0.06838959018778 -0.262282424742081 -15.904311160964 3.19061836123846 -15.9727007511518 -0.249304884189359 -41.6073716185883 44.5686290480023 -400.962948825631 420.695610876543
-0.0126500003561378 0.0600499968752265 0.00564999974519014 16 0.244148874282837 -0.0199447163287308 -0.285869212298421 0.376467357234502 -7.87668623237588 17.1370633467712 -0.556176762486472 -31.2391006909259 4.99015732845676 -0.0917477351942877 10.9579870048257 -13.7560986795371 5.21507727666925 -13.6643509443428 -11.5141637673121 -48.3761640376972 51.57076401405 -508.210754587274 485.819559451596
-0.0098500003144145 0.0600499968752265 0.00564999974519014 16 0.210926659107208 -0.124076346186921 -0.237385584987157 0.340935347485296 -13.957077537746 14.8973820019016 -0.675316073935923 -36.0187890737337 4.33796734714033 -0.287172635757965 17.5296894462527 -7.74537429264263 5.82228855457462 -7.45820165688466 -18.2050055201886 -50.9161710756354 54.5848282487746 -334.651673854798 429.648899792738
-0.00705000027269125 0.0600499968752265 0.00564999974519014 16 0.159744399388631 -0.223546786222529 -0.174073846846392 0.32525857855306 -20.5218586437103 11.373334575144 -0.96853489889567 -35.3011262163398 4.42204609693044 -0.790523435304274 18.1724014538086 -0.295830695099552 4.56866719174832 0.494692740204721 -19.1409363527043 -46.6744607914839 50.4492364217859 -14.9709161423479 254.55497295227
-0.004250000230968 0.0600499968752265 0.00564999974519014 16 0.0876796913146973 -0.321644978854504 -0.12543995512339 0.356199948108802 -25.0701774334889 6.95588846806946 -1.58968126722983 -27.7920676776695 5.97462938648227 -1.74236993832458 16.8714007343572 6.50465550653448 1.87535568855502 8.24702544485906 -18.461082001587 -34.747956145739 40.2025550638722 -12.3616876704254 45.8762255015092
-0.00145000018924474 0.0600499968752265 0.00564999974519014 16 0.00867768208185837 -0.377264313911243 -0.0744996066682506 0.384647703894042 -28.8503514511941 1.06769549059848 -2.33748453541845 -11.0064900663763 8.6992521246906 -2.65770858139574 25.8712388704357 12.7428033316042 -0.885295539946099 15.4005119129999 -28.2087234058542 -12.0741855569748 34.3321103376227 49.9578516367023 -127.044944452717
0.0013499998524785 0.0600499968752265 0.00564999974519014 16 -0.0879726576805115 -0.378609915228832 0.0263215253455564 0.389586292245342 -31.7122071434575 -6.93932857135513 -2.67577497292752 11.2743253790993 11.3867304497194 -3.13229258525434 45.2106151048437 20.0632247073603 -1.97293864445983 23.1955172926146 -47.8863900777712 18.2136539504544 56.2394484981792 23.9473149760752 -58.9438656507813
0.00414999989420176 0.0600499968752265 0.00564999974519014 16 -0.185869419574737 -0.31071289457245 0.193496571008194 0.410525111264304 -31.1127512085761 -16.1924331504855 -2.12839112535151 35.3732737806724 12.6399566070456 -3.37862604586035 61.7725870419278 28.895223687005 -0.68889392858311 32.2738497328653 -63.9009781672793 51.565706931158 88.2267449168604 -2.24659543061789 421.343723250029
0.006949999935925 0.0600499968752265 0.00564999974519014 16 -0.277694912354151 -0.18028542546245 0.39387096057646 0.514540214722794 -20.6044384652472 -23.89243718054 -0.724907184955349 53.4469213978027 11.6020851562866 -3.75636660102897 52.1227281226477 36.474613010565 1.43457230414207 40.2309796115939 -52.847635307603 77.3393585783427 101.944988417398 -1168.17874943499 1199.80439380378
0.00974999997764826 0.0600499968752265 0.00564999974519014 16 -0.309210912386576 -0.0166344722422461 0.49928359772622 0.587513578535981 -1.42248342522478 -27.4217554672439 0.94944400451132 61.6455544038952 7.56232316841597 -4.33727535892272 17.0103176047847 38.5619770893413 2.10180543353759 42.899252448264 -16.0608736002734 89.0673098711391 100.156293906601 -1785.50470119561 1843.68035663257
0.0125500000193715 0.0600499968752265 0.00564999974519014 16 -0.284429296255112 0.153494792415145 0.485298195094025 0.583073763796885 18.7429208491835 -25.812506929705 2.10721365451 57.8870299761904 0.858626849709372 -4.39596516099193 -28.3952326420317 32.8421935987138 0.228050288064494 37.2381587597057 30.5024462965417 83.6995369058954 96.5540893807601 -1534.13112747104 1718.98063689956
0.0153500000610948 0.0600499968752265 0.00564999974519014 16 -0.194878539641698 0.294264507637514 0.315726985092042 0.473553349458475 31.8192026591624 -19.9100582776245 2.4543800158572 42.6976595400332 -6.40313832260101 -3.26054017117416 -56.8553091075479 20.8627015381416 -2.85653983844083 24.1232417093157 59.3096891234051 62.6077178176577 89.5505239784586 63.4242524134056 781.336344418255
0.018150000102818 0.0600499968752265 0.00564999974519014 16 -0.0921134950717291 0.38318982324563 0.135331901754835 0.416694204718432 35.2833466422185 -11.4174260697436 2.21480876454925 19.9086374326427 -11.2895929406487 -1.17050819611458 -62.9473823277794 6.73623037900318 -5.04792569930781 7.90673857511776 65.1621910923287 31.3260635023863 72.7320418894173 84.0888505974029 -144.846684116403
0.0209500001445413 0.0600499968752265 0.00564999974519014 16 0.0193280462423961 0.404537496356061 -0.0656471600251583 0.410284911919689 34.4415593549802 -2.30405979446102 1.82542782809007 -3.56421376400798 -11.9322336126399 0.897891918821379 -54.0792859301381 -5.5585182137443 -5.82247117313838 -6.45641013256568 55.9047137582282 -1.26015396954696 56.2904098423194 137.038499222374 -446.528012056445
0.0237500001862645 0.0600499968752265 0.00564999974519014 16 0.116521312395732 0.369470802223465 -0.186555500238513 0.429987028417505 29.9167074259739 5.60713726063341 1.49965409379199 -20.8369335965522 -8.97595800350892 2.06030840730596 -38.0929561127704 -13.9361474151161 -5.65695613108761 -15.996455822422 39.5926102065624 -26.4440708571856 50.2269874205824 -26.4243772499562 -184.317444263242
0.0265500002279878 0.0600499968752265 0.00564999974519014 16 0.199281350970268 0.296816945078463 -0.289562488153448 0.460064984840036 23.7702856388212 11.5200780862463 1.08694997844291 -29.099590979536 -4.53922938115549 2.30275334120868 -24.2734447754293 -18.9602122298357 -5.6481436572241 -21.2629655710444 25.3603947538722 -40.6196690657823 52.394855109651 -61.5452191000385 188.755725306102
0.029350000269711 0.0600499968752265 0.00564999974519014 16 0.257689509789149 0.215136358287418 -0.330058933345523 0.470772169519109 15.2878269325016 15.4131481522065 0.499835709378438 -27.8766893277876 -0.537409245495543 2.26212594192087 -9.97713638796474 -21.6853624216762 -5.82220564618509 -23.9474883635971 10.4769720973432 -43.2898374799941 50.5693501272997 -357.600409862934 389.613707862361
0.0321500003114343 0.0600499968752265 0.00564999974519014 16 0.289120486577352 0.147183073246075 -0.348741868401024 0.476313346007354 7.14399456266568 17.5883303066887 -0.12355356751361 -18.3174712087837 2.05350992842801 2.37286692919787 -2.79210137567579 -23.0280629497114 -6.01980360325331 -25.4009298789092 2.66854780816218 -35.9058015154724 44.0630794269558 -368.248967222309 335.774382021027
0.0349500003531575 0.0600499968752265 0.00564999974519014 16 0.299123204151789 0.11646458207164 -0.348787407946462 0.474016187572921 3.72810927454341 18.3399620300363 -0.525441552966001 -11.6614981761663 3.22478439548841 2.53370694288059 0.102938599684136 -23.508056839548 -6.2548472085586 -26.0417637824286 -0.628380152650138 -30.0014602062027 39.7323034446836 -267.20634631065 242.021109859721
-0.0350500006899238 0.0572499968335032 0.00564999974519014 16 -0.146800487041473 0.451718579479978 0.316227479080747 0.57061359655093 13.2992725434156 -9.81150871039262 -2.44154433319084 -9.33970567413381 -18.382947553441 5.20415593315562 -21.5607328978021 15.4321066644842 6.36534214675012 10.2279507313286 19.1191885646113 0.471803036258814 21.688175249123 507.446447428469 -501.428338725625
-0.0322500006482005 0.0572499968335032 0.00564999974519014 16 -0.106715214649836 0.424901987382667 0.251714116488583 0.505262142218402 20.1308752736531 -5.5332158680727 -2.49225451844269 -14.6908140893728 -16.9366667474599 4.2510085141952 -32.772444386617 12.4257003390978 5.0955753147845 8.17469182490265 30.2801898681743 -9.15759822130007 32.6737982191782 407.122297232307 -540.460071901723
-0.0294500006064773 0.0572499968335032 0.00564999974519014 16 -0.0255724052588144 0.368346859352314 0.120661834225369 0.388449012026115 30.1767119484683 2.64878758377176 -2.34404599260363 -23.7176616880549 -13.3986612737076 2.67513181052856 -48.294018605456 6.23706578954654 2.32942990103853 3.56193397901799 45.9499726128524 -26.3664492718266 53.0968643518294 182.230719761672 -432.309574910247
-0.026650000564754 0.0572499968335032 0.00564999974519014 16 0.0746088329950969 0.291567026226949 -0.0363116287921245 0.303144096312716 29.3236140049668 11.3723485262957 -1.75059367733165 -26.8209157436954 -8.33170803890782 1.3009935975241 -45.7397911678552 -1.21690536404761 -0.979568249641586 -2.51789896157171 43.9891974905236 -38.1932642699911 58.3105028844577 14.4655394535023 -38.3505966206086
-0.0238500005230308 0.0572499968335032 0.00564999974519014 16 0.150101830164592 0.219678516988837 -0.151518556977874 0.306181454947604 20.6881617971464 18.320501665702 -0.955516449350772 -25.0081079902715 -2.82374411187583 0.589683525094497 -32.0936249682473 -8.96871978852555 -2.97827228733906 -9.55840331362005 31.1381085188965 -43.3286096559735 54.2062108135232 -57.4083598371623 321.160628634135
-0.0210500004813075 0.0572499968335032 0.00564999974519014 16 0.198211822112401 0.154736631061387 -0.225418453364012 0.337705242088969 10.0570155671684 23.1948936715773 -0.357514658848562 -21.4501687138492 2.03788363427284 0.317468259532321 -17.4873828084298 -16.5745451275646 -2.59310365660998 -16.8920133870969 17.1298681495812 -44.6450623854265 50.7144367462611 -400.056330962701 485.675978938777
-0.0182500004395843 0.0572499968335032 0.00564999974519014 16 0.209893970489502 0.102343033122985 -0.251022535186882 0.342843825157038 1.59184968772234 26.4086963783304 -0.267984776179204 -21.0347172728094 5.31335891916888 0.136956941100371 -7.07866167599477 -22.779861112256 -0.190482837133097 -22.9168180533563 6.81067689981556 -47.4434136511398 53.1266728526969 -517.211398449341 563.865093403182
-0.015450000397861 0.0572499968335032 0.00564999974519014 16 0.207225809494654 0.037578622881944 -0.26102369616429 0.335392395527516 -2.47444559991123 27.8371689093156 -0.46138432785934 -24.261134231487 6.44650019438323 0.0400333409751869 -0.168128436919079 -25.3978781206768 2.64511193330706 -25.437911461652 -0.293255890940261 -52.0983031408026 57.9776381780025 -630.501267606426 670.855496589237
-0.0126500003561378 0.0572499968335032 0.00564999974519014 16 0.194597398042679 -0.0351046197052347 -0.24629130764942 0.315847890405004 -6.60212509075471 26.9742467929972 -0.628662552363885 -30.3292411194528 5.64735046925978 0.092802318297835 7.32921801303359 -22.57933394385 4.47390438227241 -22.6721362621479 -7.95788056539747 -57.30348791245 62.1372943787773 -787.386739786807 783.25536984638
-0.0098500003144145 0.0572499968335032 0.00564999974519014 16 0.167858942349752 -0.134899704256095 -0.214787596246849 0.304151715820671 -11.3111911873484 23.8003597492683 -0.719523685241035 -35.1327254112822 4.06882389577392 0.0874395182525518 11.763476670662 -15.1879269720988 4.67023128976551 -15.2753664903514 -12.4830003559031 -58.9330851605505 62.147169250423 -775.954287401356 766.116853533957
-0.00705000027269125 0.0572499968335032 0.00564999974519014 16 0.128289470672607 -0.234619156577392 -0.177250763998212 0.320814853547173 -17.1069905451034 18.9142877758495 -0.92126874743002 -35.7088044050436 3.56241217209617 -0.312537011407229 12.1529682083038 -5.88546215018437 3.20270126920927 -5.57292513877714 -13.0742369557338 -54.6230921808931 56.4417874095022 -361.079542428017 580.441938004224
-0.004250000230968 0.0572499968335032 0.00564999974519014 16 0.0669395677248636 -0.336855886027527 -0.14555555394385 0.373013690047005 -20.427958362878 12.3296826423232 -1.49752229349389 -29.5074228138026 5.16791773374913 -1.19632582350889 11.2780723990925 3.46047069670714 0.821044727591557 4.65679652021603 -12.7755946925864 -41.8371054561258 43.9914192374709 -64.7991651058972 266.746989999093
-0.00145000018924474 0.0572499968335032 0.00564999974519014 16 0.00493315855662035 -0.400717008300126 -0.110951750136252 0.415822976340468 -22.2521710485961 3.05201416160453 -2.27369380653787 -13.7099128205889 8.678488044692 -2.05515724243575 18.9272072805245 13.9184480135264 -1.12020396066753 15.9736052559622 -21.2009010870624 -16.7619269821934 31.3942107391329 41.9665404813515 -64.4277856618113
0.0013499998524785 0.0572499968335032 0.00564999974519014 16 -0.0705062830448151 -0.411460678946654 -0.0273689472592378 0.418354019392805 -22.9434723784434 -9.6458929853564 -2.65236937346929 8.68492968581402 13.0754803838468 -2.48214079475814 35.7794492486142 27.8535050010817 -1.29238399140619 30.3356457958398 -38.4318186220835 18.3308226711704 52.2807340064509 23.5053768613589 -39.4331493790126
0.00414999989420176 0.0572499968335032 0.00564999974519014 16 -0.138461941878001 -0.346100888911557 0.113339888515572 0.389619641423169 -22.1551789365174 -24.2878318293857 -2.06791576287133 33.7423893369734 16.878018468389 -2.74981694748788 51.4704949547753 44.6427632845821 0.509372499787774 47.39258023207 -53.5384107176466 58.0302211663592 92.0865063505027 -595.638320070259 672.101992960037
0.006949999935925 0.0572499968335032 0.00564999974519014 16 -0.207901086807251 -0.214907873783571 0.288947312154244 0.415811021151405 -14.3386500746639 -36.9445244820096 -0.559184887052382 54.0036407065162 18.2981407536275 -3.3703040441954 45.7962690315167 58.7448513550122 2.64762205488533 62.1151553992076 -46.3554539185691 90.9481651885258 119.493470070225 -1877.98446434784 1966.84801538733
0.00974999997764826 0.0572499968335032 0.00564999974519014 16 -0.228069422245026 -0.0395109113151557 0.38757485064251 0.451432207896931 0.269681914933638 -43.72603878385 1.18944829420077 65.6252151528423 15.1083480252571 -4.35232816719118 18.4434407110938 62.9423993135753 3.14425903594009 67.2947274807664 -17.253992416893 109.351253936692 129.552990465523 -2925.64623667446 3173.96611914309
0.0125500000193715 0.0572499968335032 0.00564999974519014 16 -0.209441412687302 0.149832312299792 0.389192024244306 0.466675324924016 15.2399873070965 -42.451686761101 2.29448333866246 64.4322441520043 6.81803854006493 -4.77581780603021 -18.48293501424 53.5035730763503 1.33849786167529 58.2793908823805 20.7774183529025 106.883930913105 123.500458308746 -3096.10377654419 3166.62099071878
0.0153500000610948 0.0572499968335032 0.00564999974519014 16 -0.137774700721105 0.313880628802969 0.259336261367813 0.429835100656952 24.5761642413957 -33.673197685274 2.47966859874766 49.0891999783319 -3.69812768327755 -3.76760593931196 -42.7350221412463 33.4641525024477 -1.43039218399761 37.2317584417597 45.2146907399939 82.7623976636058 101.391254861589 -1316.37547480577 1764.28919363518
0.018150000102818 0.0572499968335032 0.00564999974519014 16 -0.0597005311648051 0.41779231988951 0.117719892799566 0.438146721020208 25.9519074798174 -19.929597507733 2.07559029538901 23.2023287909884 -11.7545412739061 -1.53011322309505 -49.0323251154121 10.1376320434916 -3.39632445513831 11.6677452665867 51.1079154108012 43.1319262987215 67.8860689941751 -27.9765680348321 226.424187405217
0.0209500001445413 0.0572499968335032 0.00564999974519014 16 0.0240792906284333 0.441178745398453 -0.043739498386949 0.443995091580598 25.6160158187839 -4.81040356756309 1.59316853507889 -4.28994819643819 -14.1082846424913 0.772890549503643 -43.9037098616304 -9.85475170646751 -4.30504707422765 -10.6276422559712 45.4968783967093 0.520455371124902 46.7245502659918 210.975731543797 -354.01309553185
0.0237500001862645 0.0572499968335032 0.00564999974519014 16 0.0997800624370575 0.395138671258464 -0.147404218690159 0.433380472646731 22.9318660238178 8.36291568575783 1.25058970457572 -23.8755122756136 -11.3293967340433 2.0868440464501 -31.8580698504725 -23.4726709701492 -4.6142028921614 -25.5595150165993 33.1086595550482 -32.2384279613715 52.8089801344088 -61.8808785439889 -24.8462814426252
0.0265500002279878 0.0572499968335032 0.00564999974519014 16 0.164992704788844 0.309791321728068 -0.233649847550575 0.421646186881808 18.9309282511831 18.2161342003477 0.864427887504303 -32.5288824295064 -6.34043614579591 2.32496674209145 -20.7775622840951 -31.5287514522081 -5.08147412684919 -33.8537181942996 21.6419901715994 -50.7450166298541 64.7263986865546 -517.089169503758 499.805888906907
0.029350000269711 0.0572499968335032 0.00564999974519014 16 0.213942854801814 0.214417843276945 -0.270313197881721 0.405975099710966 12.2473366921425 24.7982918063581 0.33211688504017 -30.3339259700931 -1.78784809874002 2.18409932897776 -8.53552777977871 -35.5578591544482 -5.56043564121661 -37.7419584834259 8.86764466481888 -55.1322177764511 67.3991987268111 -811.160386338329 752.670546273011
0.0321500003114343 0.0572499968335032 0.00564999974519014 16 0.23841586748759 0.1407922309412 -0.282734508074548 0.395731449621352 5.54351036765244 28.7142055235696 -0.223622192799984 -19.5411194832099 1.02939709335035 2.20247434583091 -2.18091844707925 -37.1630838485524 -5.7765349357787 -39.3655581943833 1.95729625427927 -48.2553250067795 62.3061359104568 -646.651734160901 610.208601905761
0.0349500003531575 0.0572499968335032 0.00564999974519014 16 0.247846678892771 0.105206620657506 -0.282149122438665 0.390005816060809 3.07861986520907 30.2806422805785 -0.563699649082025 -12.6639357208441 2.19676639364896 2.29367317725171 -0.122436110160665 -37.5391439105884 -5.89856306669607 -39.8328170878401 -0.44126353892136 -42.9445780014226 58.5754625281301 -473.037762743838 445.151427829152
-0.0350500006899238 0.05444999679178 0.00564999974519014 16 -0.101882928609848 0.515884832915229 0.248543940942424 0.581628216778798 7.00541715978125 -21.1384494945512 -2.22936264568618 -10.1886830256086 -14.2411540210347 5.00697493368574 -16.9098298902685 28.5663286020247 3.93598055263569 23.559353668339 14.6804672445823 10.9497664689426 29.8405202621119 541.013431232825 -524.346940236785
-0.0322500006482005 0.05444999679178 0.00564999974519014 16 -0.0802510221799215 0.485186380075962 0.197957684080272 0.530125734763521 10.6405849860403 -13.8285002547135 -2.17481495321428 -16.7575151360175 -13.3377413298795 4.23563597680911 -25.2295790220279 22.4795685603108 2.81986179667651 18.2439325835017 23.0547640688137 -2.92901488130403 29.5455978202323 488.092511482863 -531.343215660451
-0.0294500006064773 0.05444999679178 0.00564999974519014 16 -0.0369824632008871 0.415473404431444 0.0978360178430254 0.428436388232419 17.3508650329131 0.305633496610209 -1.91299703137296 -27.6782729346545 -10.8484345103874 2.7999622402063 -37.4331164020743 10.2644355418914 0.384394161072005 7.46447330168507 35.5201193707013 -27.9839064312647 45.8311712804094 162.114230377071 -277.620291831877
-0.026650000564754 0.05444999679178 0.00564999974519014 16 0.0256723753611248 0.321091783991627 -0.0262026903188477 0.323180422648949 18.0111881440819 15.7203453305265 -1.23451144501939 -32.0239459839199 -6.75174625836309 1.36507247444565 -34.9003820453273 -3.98190463042409 -2.61438628538372 -5.34697710486974 33.6658706003079 -47.7442913144464 58.6642852215503 -136.53696800608 314.734654442125
-0.0238500005230308 0.05444999679178 0.00564999974519014 16 0.0735753484567006 0.228212038005392 -0.111466536992618 0.26442173711748 12.6610153552454 28.111764493906 -0.392723512261259 -30.4265922774331 -1.638195658009 0.429926361723859 -21.6764444786934 -17.486679818028 -4.41962678559593 -17.9166061797518 21.2837209664321 -58.5383567713391 64.8131218864347 -721.066839140422 784.892362111435
-0.0210500004813075 0.05444999679178 0.00564999974519014 16 0.104326763947805 0.145578421131747 -0.155002417628032 0.236860507146228 4.89504338886347 36.4264911082366 0.155670051582462 -26.0023151198475 3.47080728900223 -0.0476508782746345 -8.51605076089357 -29.2693670160791 -3.87796065141572 -29.2217161378045 8.67172081247603 -62.4288062280841 69.4727520899498 -898.997917080174 931.651396052725
-0.0182500004395843 0.05444999679178 0.00564999974519014 16 0.105613833665848 0.0804241540240279 -0.16073690331541 0.208467451894787 -1.39493332900679 41.3614435965175 0.0693382773682617 -23.5309482491585 7.24370938645363 -0.209991350827243 -0.880560665420434 -38.2334840894983 -1.31429200408177 -38.0234927386711 0.949898942788696 -64.892391845676 75.2177560653204 -887.670264685454 947.514853114245
-0.015450000397861 0.05444999679178 0.00564999974519014 16 0.0979650723934173 0.0141442097669157 -0.157509376753684 0.186028002849872 -2.89294012901916 43.3382486113693 -0.386148312894265 -24.1825253386733 8.52819019477474 -0.0343823689200491 0.0374352871928669 -42.0191318157637 1.52063655459387 -41.9847494468437 -0.423583600087132 -67.5207739500427 79.5107132655296 -938.873854588341 1030.49565706126
-0.0126500003561378 0.05444999679178 0.00564999974519014 16 0.0898978948593139 -0.053247149036888 -0.157601749820387 0.189090459640725 -3.8697236601813 41.8872638262222 -0.711533292459446 -28.2270123559275 7.14650226355926 0.394184019910988 0.536696884861196 -38.2507185885301 2.89304077084564 -38.644902608441 -1.24823017732064 -70.1142761821497 80.0687098730723 -1126.30687901729 1179.63687849779
-0.0098500003144145 0.05444999679178 0.00564999974519014 16 0.0744237613677978 -0.14293418638253 -0.15055803479782 0.220537524551148 -5.6688616597136 36.686419911743 -0.763766385232337 -32.7242218276039 4.21429648984156 0.698228889724298 0.527537630211031 -27.6136653916579 2.41090059248383 -28.3118942813822 -1.29130401544337 -69.410641739347 74.9737821543534 -1198.22930805967 1192.82104186526
-0.00705000027269125 0.05444999679178 0.00564999974519014 16 0.0534070460001628 -0.238546951591513 -0.149556743607779 0.286573167331887 -9.46373914768403 28.2869109601077 -0.831529033352856 -35.254669030932 1.85806925572938 0.455905205616347 -0.0270632431843442 -13.5001597216332 0.729859525756924 -13.9560649272496 -0.804465790168512 -63.5415799910397 65.0611351055209 -950.898709499505 980.242619652379
-0.004250000230968 0.05444999679178 0.00564999974519014 16 0.0134406503041584 -0.34634551844288 -0.145075950263029 0.375743131102601 -10.2350689423914 17.0353752757281 -1.30494289993971 -31.3126700092506 1.60367551541274 -0.311797582483352 -0.70268369438827 1.31469497644419 -0.87676226839417 1.62649255892754 -0.602259205551442 -48.3480452849787 48.3791450634803 -399.66393104592 524.069991729049
-0.00145000018924474 0.05444999679178 0.00564999974519014 16 -0.0121330388387044 -0.421782816781003 -0.148331564639229 0.447269726486714 -8.55275887136803 2.42074215873207 -2.06549862603668 -17.562116979827 3.75055655915594 -1.00740937883874 4.10391592469766 17.6607651089326 -1.21058169238311 18.6681744877713 -6.16941455073433 -19.9828591385591 28.0334991386409 -33.4503668359041 42.5174624000866
0.0013499998524785 0.05444999679178 0.00564999974519014 16 -0.0403216139475504 -0.451915448589425 -0.118999130242931 0.469056711095461 -5.3876450753823 -16.1365901745962 -2.4194287219161 4.05423476877653 7.8364632962767 -1.25179545284877 16.0040202807595 38.3244284450589 0.184509937104945 39.5762238979077 -18.4234490026756 20.1908249433727 48.0975091149784 -61.2634570012709 110.348204938615
0.00414999989420176 0.05444999679178 0.00564999974519014 16 -0.0445267379283905 -0.404757934243729 -0.056264630795243 0.411068515459794 -4.53234370252972 -36.6733138676156 -1.71579274320059 29.6834874844916 12.7235219812538 -1.45411464843907 30.4821413099038 62.2989527742847 2.65767506311887 63.7530674227238 -32.1979340531044 66.3568013521072 97.4904387556925 -1032.18621865741 1195.58482539564
0.006949999935925 0.05444999679178 0.00564999974519014 16 -0.0635607139269512 -0.289779426336754 0.0534775368232901 0.301449709284399 -2.03495916080796 -53.9431473628352 -0.0610337805310125 52.9034277455876 16.4625145094258 -2.37119752790569 33.0989968763413 81.8824905039014 4.54862510377549 84.2536880318071 -33.1600306568723 106.846575108423 140.051641163271 -2778.25906023625 3082.08211058604
0.00974999997764826 0.05444999679178 0.00564999974519014 16 -0.0491507228215535 -0.109337272631625 0.127526536699928 0.175024142057836 3.39463678052925 -62.5902788404463 1.7093404695419 70.2062179013713 16.1715174501958 -3.95810864214873 21.421032959173 87.4046224524346 4.65217479128508 91.3627310945834 -19.7116924896311 132.796496741818 162.390298357896 -4490.81909125745 4849.48950514417
0.0125500000193715 0.05444999679178 0.00564999974519014 16 -0.0355972087383269 0.109302461875292 0.169898725029586 0.205133532628477 8.00733602248909 -59.7569344441836 2.57194664576872 73.8955037265405 10.4175646123228 -5.01237304872349 1.09378155386723 74.2891398734731 3.17082574832476 79.3015129221966 1.47816509190149 133.652438170724 155.415215319374 -4733.34996015066 4927.15959635283
0.0153500000610948 0.05444999679178 0.00564999974519014 16 0.00169744451840725 0.317601208801692 0.131371774638343 0.343703291112867 9.98256845041356 -46.7091764444212 2.36693055700296 59.3592755086093 1.20039573085173 -4.33459893149556 -15.2841057239033 47.3009274619254 1.28997757591403 51.635526393421 17.6510362809062 106.06845195303 119.282451213193 -3040.29147170707 3040.23864543111
0.018150000102818 0.05444999679178 0.00564999974519014 16 0.0214824851353963 0.457003224828125 0.0863668151552944 0.465588521584207 7.32776308895834 -27.235036440121 1.62841057905369 29.40358169162 -7.21451910942875 -2.00388217628713 -21.9109403510194 16.0551467391458 0.0361843171467609 18.0590289154329 23.5393509300731 56.638618131741 63.9387412407435 -813.517049372301 815.798059115621
0.0209500001445413 0.05444999679178 0.00564999974519014 16 0.0407002051671346 0.492159671552169 0.0103933738350558 0.493949057315287 7.80398819852176 -5.9180583691697 0.984591346286292 -4.13838473634289 -11.2135921015704 0.570974976966642 -23.3188975340417 -11.6586666028765 -0.874764786346115 -12.2296415798432 24.303488880328 1.77967363282681 27.2651965547112 73.540979418536 -79.4029498056819
0.0237500001862645 0.05444999679178 0.00564999974519014 16 0.0648864952723185 0.434630713599618 -0.0483309669290126 0.442097270786793 8.50591097538613 13.1466050462032 0.650502705034354 -27.6591478676964 -10.360407878031 2.07341861082942 -18.1983160986514 -32.2853134186046 -1.93658357574721 -34.3587320294341 18.8488188036858 -40.8057529138995 56.5765844482932 -317.913550186664 357.869597642691