TITLE="DynamicStudio Exported Data"
VARIABLES= "X (m)[m]" "Y (m)[m]" "Z (m)[m]" "Status[-]" "U[m/s]" "V[m/s]" "W[m/s]" "Length[m/s]" "dU/dX[1/s]" "dU/dY[1/s]" "dU/dZ[1/s]" "dV/dX[1/s]" "dV/dY[1/s]" "dV/dZ[1/s]" "dW/dX[1/s]" "dW/dY[1/s]" "dW/dZ[1/s]" "Vorticity X[1/s]" "Vorticity Y[1/s]" "Vorticity Z[1/s]" "Vorticity Magnitude[1/s]" "Lambda-2[1/s²]" "Q-Criterion[1/s²]"
ZONE T="DynamicStudio Data" I=26 J=26 F=POINT
-0.0350500006899238 0.0600499968752265 0.00564999974519014 16 -0.342285524408023 -0.215000788390559 0.475328738011885 0.623956832166944 -14.1665287215342 -15.7639547252633 -3.24980914480678 23.0266178483704 4.44298617552413 2.15052913909633 31.3764890695187 16.457644019934 10.1776065849632 14.3071148808376 -34.6262982143255 38.7905725736338 53.9294222556781 -297.593989428309 267.661437411577
-0.0322500006482005 0.0600499968752265 0.00564999974519014 16 -0.383205741445223 -0.15346423733669 0.565470538816104 0.700110593182885 -18.0053329812307 -17.6602676067095 -2.31299307002943 32.5730371490168 2.57474796100118 1.32319636533248 42.2699437490164 18.3353797377262 10.4266341495272 17.0121833723937 -44.5829368190458 50.2333047557263 69.2851899412035 -390.949744282654 441.509072851304
-0.0294500006064773 0.0600499968752265 0.00564999974519014 16 -0.445741010506948 -0.0406688861356815 0.718739016804223 0.84671410819944 -15.523199087895 -20.2115960896179 -0.810330999500496 46.0011149041605 -0.466460449473038 -0.171025715448941 44.7747636442142 20.9985268362394 11.1639141123384 21.1695525516884 -45.5850946437147 66.2127109937785 83.1280572734667 -861.077709879895 798.363393829842
-0.026650000564754 0.0600499968752265 0.00564999974519014 16 -0.471207594076792 0.0955324939983742 0.822550766505301 0.952760629751065 4.99720677934688 -20.3664835641572 0.334858167952968 44.1390150716795 -2.61250024435438 -1.78539603286255 8.53304118343763 21.5740831491982 11.5986316766247 23.3594791820607 -8.19818301548466 64.5054986358367 69.092943392726 -929.301361461061 949.221577749004
-0.0238500005230308 0.0600499968752265 0.00564999974519014 16 -0.412703754107157 0.201617903167304 0.764014581455073 0.891455241842063 30.7518960849232 -16.8881348049942 0.685169549412775 34.5092446548117 -3.22118252357383 -2.99696286530995 -40.7847842087004 18.8736123139648 11.0716969728341 21.8705751792747 41.4699537581132 51.3973794598059 69.5684536173375 66.8153726989252 873.059030969009
-0.0210500004813075 0.0600499968752265 0.00564999974519014 16 -0.289494626919429 0.287412541554198 0.584599835209859 0.712860488023608 49.5511874189788 -11.2073901730715 0.421345818954636 23.3554814391729 -3.0052637695598 -3.50854928217472 -76.6060561420343 13.9595611218741 9.12195176941716 17.4681104040489 77.027401960989 34.5628716122444 86.2145441792294 0.807739238026277 618.684725088466
-0.0182500004395843 0.0600499968752265 0.00564999974519014 16 -0.124552011092504 0.332861042673467 0.319097518203392 0.477632602865862 54.3624438089588 -5.1174655385433 0.0237551942949 9.34380212336155 -2.91363276976854 -3.32224053472326 -81.4645130849488 8.00235593150552 5.97772346173498 11.3245964662288 81.4882682792437 14.4612676619048 83.5327038629911 1.28012490720781 225.492109051527
-0.015450000397861 0.0600499968752265 0.00564999974519014 16 0.0252040108044942 0.340013242585507 0.110413526749859 0.358378841707328 46.3863892398319 0.833909544079934 -0.202735912522536 -5.72109317421005 -3.21148822664395 -2.59038664387821 -62.8184712583515 1.61429561273546 2.82829896051547 4.20468225661367 62.615735345829 -6.55500271828999 63.098159453464 2.75113234105173 -30.6408513630733
-0.0126500003561378 0.0600499968752265 0.00564999974519014 16 0.14605929851532 0.301621550610313 -0.0504277361917775 0.338897971449793 31.9240805622091 6.94839098440544 -0.0858038769341613 -21.1004986316463 -3.5867378868773 -1.629834261787 -39.6016343591102 -5.49779815767328 0.577863201254696 -3.86796389588629 39.5158304821761 -28.0488896160517 48.6127782798865 -6.32820787291161 36.1278391931042
-0.0098500003144145 0.0600499968752265 0.00564999974519014 16 0.216491944789887 0.222837796183303 -0.129011466182225 0.336406605127227 17.0592774691875 12.7531971833414 0.441745910419824 -31.8989690110237 -3.88043936303978 -0.814184124585009 -22.8825453061784 -12.9655028816436 -0.448846857444421 -12.1513187570586 23.3242912165982 -44.6521661943651 51.8217430635204 -103.652697537606 334.253034073221
-0.00705000027269125 0.0600499968752265 0.00564999974519014 16 0.253101604779561 0.123768681671548 -0.193291427403262 0.341673359822349 6.45479871955836 17.0369217146658 1.20908528656893 -35.4811696785679 -3.67587358418343 -0.29146958452018 -14.728837179061 -19.1850563443132 -0.592015078200737 -18.8935867597931 15.9379224656299 -52.5180913932337 58.0442496442008 -601.654837065186 591.334280392556
-0.004250000230968 0.0600499968752265 0.00564999974519014 16 0.260308451652527 0.026076931249651 -0.220950348504509 0.342431822191511 0.292308119613809 19.1263549254621 1.88275401350678 -32.550444471451 -2.60111481395128 -0.0502865653923034 -7.41519556999708 -22.1893881549244 -0.325724955701501 -22.1391015895321 9.29794958350386 -51.6767993969131 56.983184199883 -617.052338938348 635.40822402247
-0.00145000018924474 0.0600499968752265 0.00564999974519014 16 0.2574325410525 -0.0554354195940929 -0.235252439557808 0.353112318188166 -3.59719784487885 19.2054915144458 2.12366406317012 -25.4153002336972 -0.686241618785536 -0.0811508334524752 3.30929391939024 -20.8422343149194 0.263199689551882 -20.761083481467 -1.18562985622013 -44.620791748143 49.2284812045989 -484.490899482325 480.73528665373
0.0013499998524785 0.0600499968752265 0.00564999974519014 16 0.238373382091522 -0.112201479228485 -0.193485265006311 0.326875494654117 -7.9645225606508 18.0581069211021 1.82886018043043 -19.16160664232 1.69497300065658 -0.393061169113956 17.7270947141618 -16.3060479125657 1.30835349067939 -15.9129867434517 -15.8982345337314 -37.2197135634221 43.488896124528 -256.58548969382 285.490251878295
0.00414999989420176 0.0600499968752265 0.00564999974519014 16 0.208753263950348 -0.159022202862931 -0.1225843270383 0.28964271689227 -14.8025222636975 16.3818879065866 1.26426262996298 -17.1445201598269 3.93816665688317 -0.916264631136607 29.246484175635 -11.5892044924556 2.69508677451277 -10.672939861319 -27.982221545672 -33.5264080664136 44.9548262787221 -62.9049167248391 145.690411563801
0.006949999935925 0.0600499968752265 0.00564999974519014 16 0.150831131537755 -0.205523179449762 -0.0198304246831685 0.255701101435276 -23.7561191602748 14.279558214022 0.628948438824226 -18.3239755437528 5.76826343684806 -1.34226130445672 34.3388216998879 -8.87911205465269 3.96548920409972 -7.53685075019597 -33.7098732610637 -32.6035337577748 47.4989482831153 -0.326283224875634 19.7806374314596
0.00974999997764826 0.0600499968752265 0.00564999974519014 16 0.0700796683629354 -0.259041427231083 0.0739123308247266 0.278346283588841 -31.1156484515533 11.2484460528285 0.0845025680075421 -21.0160082792711 7.27095466444539 -1.46665600488613 29.6549918531597 -7.61521767418637 4.36619217450159 -6.14856166930024 -29.5704892851522 -32.2644543320995 44.1951768919712 10.1665934584199 -107.628376983739
0.0125500000193715 0.0600499968752265 0.00564999974519014 16 -0.0310191953182219 -0.320490045116899 0.147310846656716 0.354085505266652 -34.9280854695839 6.44545183624933 -0.200284340405748 -20.2064191807154 8.45617589803821 -1.42872433427701 21.6568212524541 -4.91273260270106 3.2255784728388 -3.48400826842405 -21.8571055928599 -26.6518710169648 34.6438105181402 8.02182557171269 -253.187173006504
0.0153500000610948 0.0600499968752265 0.00564999974519014 16 -0.136949023803075 -0.370146679534422 0.200030316467164 0.442465509386807 -34.5523044127647 -0.579151130033249 -0.0775578464576591 -12.9574594234504 9.15995882878554 -1.4975279372465 15.7997000834586 2.0174053762723 1.18719176237283 3.51493331351879 -15.8772579299162 -12.3783082934171 20.4368439779348 75.4190206947413 -349.901085007796
0.018150000102818 0.0600499968752265 0.00564999974519014 16 -0.239209175308545 -0.392616156721488 0.250564898397424 0.523594541968743 -32.2235248241596 -9.17316221578035 0.406403869011235 4.53218560085069 8.66852181172305 -1.68756517722813 15.7156725954909 12.8098976902125 -0.0988603155573131 14.4974628674406 -15.3092687264796 13.705347816631 25.1473000003424 12.3526982517285 -220.1965719305
0.0209500001445413 0.0600499968752265 0.00564999974519014 16 -0.333378147681554 -0.347792568417499 0.310287604717693 0.573043678648904 -23.7418661998052 -17.3135025359925 0.772572108045448 31.227617354266 6.38794375176357 -1.62696523111026 13.4298596633214 23.6046857291185 0.200631753583391 25.2316509602287 -12.657287555276 48.5411198902585 56.1523237153744 -206.196082291764 413.544446499248
0.0237500001862645 0.0600499968752265 0.00564999974519014 16 -0.38516871770223 -0.223005535924652 0.345162694246198 0.563226149649247 -5.51504133694208 -22.5947609677509 0.632551988947297 57.4760694398112 2.37822146995167 -0.984253008118134 0.334214124155866 29.7116243896259 0.890986750690416 30.695877397744 0.29833786479143 80.070830407562 85.7535059158252 -1311.17089170908 1311.779543575
0.0265500002279878 0.0600499968752265 0.00564999974519014 16 -0.370937212109566 -0.0330443978284893 0.316785057827959 0.48891627137837 19.626979986393 -23.2672640572849 0.157195587502731 71.2658231543161 -2.57383110893872 0.19049182085239 -24.6011162420568 28.1529839370159 -0.520592563719786 27.9624921161635 24.7583118295595 94.533087211601 101.643394019249 -1415.96762986835 1597.27072518244
0.029350000269711 0.0600499968752265 0.00564999974519014 16 -0.272168125708898 0.169349604990566 0.189822628052983 0.372541819777721 36.7653456591542 -19.4863536108013 -0.0960865531522526 63.8892875379423 -7.1255859825637 1.45449221960302 -43.2631890766794 19.8391591434666 -4.70670637119398 18.3846669238636 43.1671025235271 83.3756411487435 95.6707492138645 107.365246151117 810.476058188665
0.0321500003114343 0.0600499968752265 0.00564999974519014 16 -0.154562422434489 0.319243816220357 0.0446464327330856 0.357490504180942 31.4320993139104 -14.090732547093 0.0358533759299875 39.2872775163743 -10.3217317422372 2.38768582334347 -36.9374160963497 9.99407940515591 -9.33143632874291 7.60639358181243 36.9732694722797 53.3780100634673 65.3765388891678 84.8508437851157 9.62438125380578
0.0349500003531575 0.0600499968752265 0.00564999974519014 16 -0.0859645243485769 0.386234004781581 -0.0402166355370233 0.397723501530917 22.9544150026399 -10.7784060860186 0.23368508379245 23.8613280200306 -11.5482993238143 2.81777806338294 -27.6102305233047 4.54953591462951 -11.7827261637411 1.73175785124657 27.8439156070971 34.6397341060492 44.4768906346688 102.31434338579 -148.659993202959
-0.0350500006899238 0.0572499968335032 0.00564999974519014 16 -0.300352900028229 -0.228937034061625 0.432963309983801 0.574526986235137 -11.7222744466522 -27.1385242873413 -3.3226215982898 24.431607460839 7.29337004999382 2.98283277129799 28.4049671519727 31.580989260601 10.537638087307 28.598156489303 -31.7275887502625 51.5701317481803 66.9624740508975 -525.236988091959 531.050843073805
-0.0322500006482005 0.0572499968335032 0.00564999974519014 16 -0.334424865643183 -0.161574070385201 0.515344163929112 0.635236789140159 -14.9078618731065 -30.4186425266108 -2.44845308795039 34.8004055265879 5.22041787310756 2.05642423285088 38.5567024130989 35.6588259964364 10.6678171976491 33.6024017635855 -41.0051555010493 65.2190480531987 84.0480125339802 -972.972861292375 898.486548408184
-0.0294500006064773 0.0572499968335032 0.00564999974519014 16 -0.387496815125147 -0.0376482488348847 0.659665631100846 0.765982974502791 -12.9332816134141 -35.2555882815799 -1.03926840685333 48.6680417994621 1.33985873705966 0.329782704745628 40.827092234105 42.4320230429586 11.1677591670113 42.1022403382129 -41.8663606409583 83.923630081042 102.803533406177 -1751.72910491312 1597.45607895518
-0.026650000564754 0.0572499968335032 0.00564999974519014 16 -0.410815804799398 0.103790363817643 0.758269471552533 0.868628031198012 4.04546370112133 -36.8421335196555 0.0366781788424327 45.9108257413634 -2.38353222963207 -1.6211545033373 8.26727877622172 46.4536047559641 11.3693541761624 48.0747592593014 -8.23060059737928 82.7529592610189 96.057157622372 -1761.05892875409 1775.71060817828
-0.0238500005230308 0.0572499968335032 0.00564999974519014 16 -0.365187238057454 0.21069353402146 0.71246871003949 0.827867831784651 26.0671757889569 -32.3651197318514 0.352419650341231 35.257525564536 -4.7007297159671 -3.13919746525071 -36.683077995518 43.5178178950754 10.7112095943446 46.6570153603261 37.0354976458593 67.6226452963873 90.1184072489698 -512.331923864413 1396.97863182667
-0.0210500004813075 0.0572499968335032 0.00564999974519014 16 -0.258117404381434 0.294836141611886 0.543086166234377 0.669698087798036 42.7671429670212 -22.7899365279017 0.147400536994576 23.2583156254546 -5.42381772997775 -3.79047980579194 -69.1074317850512 33.55550438894 8.81914862915095 37.345984194732 69.2548323220458 46.0482521533563 91.1668572552928 13.0813993233495 764.808618452073
-0.0182500004395843 0.0572499968335032 0.00564999974519014 16 -0.111478061676025 0.339799027013748 0.299384710568314 0.466392476265008 47.2815180454614 -10.9549411906228 -0.136372932817355 9.14650640830325 -5.15989986779827 -3.51346124607899 -72.845157507104 19.4232595175683 6.01917076860966 22.9367207636473 72.7087845742866 20.101447598926 78.8462345913356 -0.339391862569889 168.077515768791
-0.015450000397861 0.0572499968335032 0.00564999974519014 16 0.0237686733404796 0.349477597583706 0.103575948973497 0.365277316912788 39.7900206094764 0.738561509022311 -0.275840925465973 -5.87533626750498 -4.70907590715325 -2.54486868292019 -54.6750025008002 4.78978862176223 3.35246276868104 7.33465730468242 54.3991615753342 -6.61389777652729 55.2884221304497 6.87813562491391 -68.3195894011225
-0.0126500003561378 0.0572499968335032 0.00564999974519014 16 0.126059685945511 0.311493428057875 -0.0329096744869215 0.337642187557719 25.9405913134753 11.280258908003 -0.202058279270776 -21.0749667056842 -4.4552815197426 -1.37539514399241 -32.1370666953226 -8.44754987610715 1.55825764048071 -7.07215473211474 31.9350084160518 -32.3552256136872 46.0078336764608 -13.5030439261879 137.525812496219
-0.0098500003144145 0.0572499968335032 0.00564999974519014 16 0.17935798962911 0.234768511257134 -0.0920918522092203 0.309461551028576 12.3407014004143 20.0473888258647 0.137583111092271 -31.7192211732164 -4.56266079145779 -0.460955011838326 -16.7512111181023 -19.5542168199808 0.814903471195751 -19.0932618081425 16.8887942291945 -51.7666099990811 57.7023910058093 -554.305729831437 579.210547480099
-0.00705000027269125 0.0572499968335032 0.00564999974519014 16 0.202638874053955 0.135003357074456 -0.133897891864957 0.27787958749269 3.57776335652879 26.2150920805593 0.716427383646383 -35.7652471534012 -4.52651974738378 0.0500041189236358 -10.6613981964782 -27.6798055030832 0.597512670057728 -27.7298096220068 11.3778255801245 -61.9803392339606 68.8473652957127 -921.062107352278 929.849758863322
-0.004250000230968 0.0572499968335032 0.00564999974519014 16 0.204691862265269 0.0343541060683007 -0.154973207027651 0.259028295708811 -0.646273356412313 29.3342311826829 1.35175796606219 -33.4806219200679 -3.67051774734423 0.230326295615544 -6.49544101824808 -31.6655551005446 0.326264316900447 -31.8958813961601 7.84719898431027 -62.8148531027508 70.88463551615 -978.658572925744 999.165720611374
-0.00145000018924474 0.0572499968335032 0.00564999974519014 16 0.201906601587931 -0.0528821902349591 -0.172254054404135 0.270618294037001 -3.01880619114713 29.6680421419828 1.76461927092003 -27.0766705910911 -1.71726100638876 0.164250485496312 0.858678316696251 -30.5837453296013 -0.00168781037416215 -30.7479958150976 0.905940954223783 -56.7447127330739 64.5462810610873 -797.699725254678 812.012030615846
0.0013499998524785 0.0572499968335032 0.00564999974519014 16 0.187808445692062 -0.116965528499762 -0.150008379808714 0.267311543228744 -6.60051764575437 28.1081071044692 1.74804989836823 -21.0821134265761 1.07087792878052 -0.145873830172214 13.3335277415192 -25.2516248883826 0.175409384992632 -25.1057510582103 -11.585477843151 -49.1902205310453 56.4287145781635 -517.381456742733 557.548779761427
0.00414999989420176 0.0572499968335032 0.00564999974519014 16 0.162480002244314 -0.170217610660863 -0.0923682166015108 0.25279571504784 -12.9565734141251 25.4568930115056 1.3731481391503 -18.7794629894133 3.87859632388085 -0.658386618201277 25.2345761882343 -18.418431068376 1.29054046024863 -17.7600444501747 -23.861428049084 -44.2363560009189 53.3070550645393 -267.056744203159 369.320705509933
0.006949999935925 0.0572499968335032 0.00564999974519014 16 0.110868248939514 -0.221615959320528 0.0021474268216601 0.247810438622804 -21.2621445659335 21.8177461317801 0.764040868165331 -19.5865824467356 6.16611379646182 -1.13787525231679 31.6197001841599 -12.5907657111817 2.93433702274284 -11.4528904588649 -30.8556593159946 -41.4043285785158 52.8919543666632 -76.8581433334468 213.44797458806
0.00974999997764826 0.0572499968335032 0.00564999974519014 16 0.0369511866569519 -0.279527230172825 0.0976346424458704 0.298384627635174 -27.4207233194071 16.6392171256905 0.158929237058102 -21.9919141368644 7.90372948117222 -1.4119757661695 27.2445485067734 -7.88249897588955 3.78532922458858 -6.47052320972005 -27.0856192697153 -38.6311312625549 47.6220825296022 -2.83205264264033 59.8641550471929
0.0125500000193715 0.0572499968335032 0.00564999974519014 16 -0.0504985940456391 -0.344639118478711 0.164452666415212 0.385189446217627 -29.3882926419939 9.00549723814727 -0.13050764959435 -20.7717468297416 9.04988924326074 -1.54446108349956 17.10710614478 -1.8231688789909 2.6156386998971 -0.278707795491345 -17.2376137943743 -29.7772440678888 34.4078082945992 6.74933579636112 -132.682004943625
0.0153500000610948 0.0572499968335032 0.00564999974519014 16 -0.13664829214414 -0.396471792003916 0.198074488258377 0.463784584154675 -27.1413288484481 -1.60373683166517 0.116618543544712 -12.8743923751771 9.29755553376446 -1.71389234435163 7.86275387899701 8.35344644015367 -0.00754743051535183 10.0673387845053 -7.7461353354523 -11.2706555435119 16.9818020014851 90.1726689223925 -259.460509829654
0.018150000102818 0.0572499968335032 0.00564999974519014 16 -0.212357801596324 -0.419155598048722 0.211708382159183 0.51537141010233 -23.9090233553334 -14.4645435028922 0.75188557428292 6.34725175629693 7.56323466906573 -1.86690607027382 5.85521642920199 22.553351372924 -1.88960005466796 24.4202574431978 -5.10333085491907 20.8117952591891 32.4888254838065 -28.0772779624522 -20.4299161809229
0.0209500001445413 0.0572499968335032 0.00564999974519014 16 -0.281964453458786 -0.366084330906936 0.238850577940375 0.520164674821678 -16.7311323205721 -27.0763320775474 1.14366969252125 34.6725389308657 3.06343962367293 -1.70380081502132 5.27787486722575 36.9675296556732 -1.52554391498078 38.6713304706945 -4.1342051747045 61.7488710084131 72.975931125364 -986.727292464979 965.350191419732
0.0237500001862645 0.0572499968335032 0.00564999974519014 16 -0.318381806612015 -0.232029104968533 0.254221384747264 0.468863511906019 -2.09275699162207 -35.7489308248477 0.868071580586327 62.1027266281401 -3.67156504731841 -0.989593518973314 -2.282419733131 45.7005020888866 -0.01165427781557 46.6900956078599 3.15049131371733 97.8516574529878 108.465835587459 -2249.66883891259 2275.06317508353
0.0265500002279878 0.0572499968335032 0.00564999974519014 16 -0.301987514098485 -0.0245080694075053 0.233115496592339 0.382282538038241 17.769423554229 -37.0894910414924 0.162372992925813 75.293462997052 -10.6751778854198 0.180747054371032 -19.4332868096211 43.6688533312745 -0.284288722361535 43.4881062769035 19.5956598025469 112.382954038544 122.086582510438 -2669.29621258656 2596.15007424631
0.029350000269711 0.0572499968335032 0.00564999974519014 16 -0.217485220034917 0.18820898061463 0.134148042048522 0.317361211402853 31.1282624833923 -30.8551549157276 -0.301570950815367 66.2743724299518 -15.5706509956236 1.40422603160703 -33.0711073869375 31.08021714028 -3.70150021864667 29.675991108673 32.7695364361221 97.1295273456794 106.71762763909 -1244.30245670497 1449.01527944055
0.0321500003114343 0.0572499968335032 0.00564999974519014 16 -0.117080539067586 0.35072983322277 0.0211414001810287 0.370359591940648 26.0742572227455 -21.6587700033702 -0.276997619216662 40.1879551960622 -17.7910316474299 2.31676791356064 -28.1246364787006 15.3570490789925 -8.29250406013012 13.0402811654319 27.8476388594839 61.8467251994324 69.0692213711423 -182.570781996888 294.475885450766
0.0349500003531575 0.0572499968335032 0.00564999974519014 16 -0.0603541572888693 0.418443937563958 -0.0486892474510629 0.425568556173304 18.7660512393757 -16.0089154781421 -0.119325741530041 23.4018100622346 -18.1296808139934 2.68761286373121 -21.4670685228758 6.3113966247092 -11.0086905979984 3.62378376097799 21.3477427813457 39.4107255403767 44.9673572519414 -12.8180098836481 7.88531046752468
-0.0350500006899238 0.05444999679178 0.00564999974519014 16 -0.198223584890366 -0.256835533801156 0.308651139020609 0.447797506299926 -6.17022485044169 -46.0622093896893 -3.43821578162823 26.2147645311195 11.0106040797292 4.33540444395485 20.9454572933675 58.848528575761 9.89363367768429 54.5131241318062 -24.3836730749957 72.2769739208088 93.7560940653313 -806.90783356657 1004.34383849027
-0.0322500006482005 0.05444999679178 0.00564999974519014 16 -0.21637050708135 -0.183894071054905 0.370039474944739 0.466435889186462 -7.78428545182423 -51.7563507704389 -2.67146000471807 37.9137738366341 9.37580225647575 3.29287170264375 28.9037348272835 66.9101627119429 9.84147238781531 63.6172910092991 -31.5751948320015 89.670124607073 114.389177333735 -1661.51177445354 1761.846115468
-0.0294500006064773 0.05444999679178 0.00564999974519014 16 -0.244081066449483 -0.0450969011544172 0.478679567809838 0.539206292740971 -6.85031273143401 -60.1259503187322 -1.43514606914486 52.9438383976808 5.8671964842587 1.28726905477011 30.7634774465125 79.8535480388287 9.99647847569114 78.5662789840586 -32.1986235156573 113.069788716413 141.40080859061 -3057.28546708854 3074.63584843062
-0.026650000564754 0.05444999679178 0.00564999974519014 16 -0.25458377679189 0.111640957942776 0.54592810897467 0.612628846092529 2.44173493796178 -63.018645199477 -0.481172608403474 49.4855252157246 1.74009137837054 -1.06537049271248 7.14583759169007 87.0170222979474 9.93584396496079 88.0823927906599 -7.62701020009354 112.504170415202 143.086923110161 -3191.90610636024 3260.45332099413
-0.0238500005230308 0.05444999679178 0.00564999974519014 16 -0.225760131279628 0.230104783500234 0.511702780848912 0.604777301321399 15.7913306237559 -55.6160850589205 -0.206160976894284 37.4257201422024 -1.68560518732202 -2.96361713925133 -26.1780927475529 80.5692650954027 9.37104778261712 83.532882234654 25.9719317706586 93.0418052011229 127.706934695858 -1983.25873487828 2420.41906683882
-0.0210500004813075 0.05444999679178 0.00564999974519014 16 -0.158432683149974 0.318998969570772 0.383998510773915 0.523751958424881 27.1330481875553 -39.2813283182033 -0.330863497833316 23.6168493677638 -3.48924549328702 -3.80729761049101 -49.7926205553611 60.7117821238828 8.11114692454632 64.5190797343738 49.4617570575278 62.8981776859671 102.787926417473 -196.968441951705 1239.47896766299
-0.0182500004395843 0.05444999679178 0.00564999974519014 16 -0.0657639443874358 0.360350088994407 0.215072751278058 0.424774494716884 30.6815062349905 -18.8822170655454 -0.456925492488586 8.72275100496436 -3.68794169443684 -3.44778452049242 -51.1895645326371 33.8736227910975 6.44238793093342 37.3214073115899 50.7326390401485 27.6049680705097 68.7657063504001 -0.629445829814272 318.855421529024
-0.015450000397861 0.05444999679178 0.00564999974519014 16 0.0203825938701629 0.367420760536722 0.0833692946540153 0.377311416070819 24.7818756526287 1.03243700212819 -0.462407665089069 -6.47423964692384 -3.11610687232411 -2.20688054362096 -35.6694798959984 7.84597810763493 4.95647706751057 10.0528586512559 35.2070722309094 -7.50667664905203 37.3757688408951 -12.9734271004775 37.6684531692231
-0.0126500003561378 0.05444999679178 0.00564999974519014 16 0.0795829534530639 0.325633903099533 0.00674826808484796 0.335285586404029 13.4749722625236 17.9645036109469 -0.439076207776436 -21.2159386886473 -2.63002589735279 -0.789183924572896 -17.0442890978544 -13.0149835967656 3.98324529736918 -12.2257996721927 16.6052128900779 -39.1804422995942 44.2753919411362 -192.245122246117 371.137405120094
-0.0098500003144145 0.05444999679178 0.00564999974519014 16 0.10034987449646 0.250358598308327 -0.0148154449664677 0.270127789144175 3.24673001502621 30.756964129425 -0.393286270570884 -31.1375003064287 -2.96339550946221 0.213502521845352 -5.82368863936637 -27.9286167290962 3.46883445966261 -28.1421192509415 5.43040236879549 -61.8944644358537 68.2084516289763 -952.206784907779 952.728928671708
-0.00705000027269125 0.05444999679178 0.00564999974519014 16 0.0995213715235392 0.15118850868986 -0.025664466128607 0.182814478013795 -1.67644209435633 38.9374377110036 -0.141780901184113 -35.510656646256 -3.83584792746917 0.645375546217826 -3.91682726779605 -37.4751214534118 2.72938012613832 -38.1204969996296 3.77504636661194 -74.4480943572596 83.7253965054586 -1393.19860196221 1397.70961901627
-0.004250000230968 0.05444999679178 0.00564999974519014 16 0.0909442122777302 0.0492048890263929 -0.0371498199682295 0.10987301750015 -2.37662239331877 42.8028530966715 0.412964051910625 -34.1533893079106 -4.27367304681131 0.686203016990355 -4.79711937807356 -41.932264424807 1.19610098149092 -42.6184674417973 5.21008342998419 -76.9562424045821 88.1234473989059 -1473.1750792274 1494.82007167497
-0.00145000018924474 0.05444999679178 0.00564999974519014 16 0.0867293707529704 -0.0435075899793689 -0.0553190082055517 0.111691928114188 -2.02875386206604 43.2093388451971 1.09171678592332 -29.2746263287089 -3.35620666230625 0.54800432084268 -2.88584083630765 -40.9678766829209 -0.828161024647397 -41.5158810037636 3.97755762223097 -72.483965173906 83.6260398888339 -1262.85446522784 1301.8068745778
0.0013499998524785 0.05444999679178 0.00564999974519014 16 0.08063933690389 -0.117676241381268 -0.0573775834976308 0.153761463084705 -3.8331453191174 41.0118492269926 1.49828074484788 -24.1962777211761 -0.832225565257675 0.236682680777836 5.9426295276171 -35.1645797572336 -2.04122679285774 -35.4012624380115 -4.44434878276922 -65.2081269481687 74.3310260819555 -940.656056896102 1004.46633494341
0.00414999989420176 0.05444999679178 0.00564999974519014 16 0.0645483314990998 -0.180839123756935 -0.0243756988055732 0.193554773830959 -8.69593385598872 36.6350514351829 1.3891408811212 -21.6506931962645 2.34545054109319 -0.275574010721959 17.4191364991492 -26.7914356742529 -1.26890475211334 -26.515861663531 -16.029995618028 -58.2857446314474 66.0096940344054 -656.173627516481 749.255876534612
0.006949999935925 0.05444999679178 0.00564999974519014 16 0.028098116715749 -0.24001737105893 0.0418510305990155 0.245253646935599 -15.1352758023184 29.8866899931569 0.816128381917379 -21.7362459726668 5.07882680129454 -0.878868874413232 24.9603803118606 -18.1443414700628 0.999097962715749 -17.2654725956495 -24.1442519299432 -51.6229359658236 59.5480391191786 -391.715004670177 526.390251140494
0.00974999997764826 0.05444999679178 0.00564999974519014 16 -0.0273518737157186 -0.303796763109664 0.120010029640592 0.327784998872746 -18.8212202806944 20.3388471969188 0.146253919266992 -23.141741458075 6.6407019637258 -1.43369448022797 20.6612407363005 -9.60998056258266 2.55725443464437 -8.17628608235469 -20.5149868170335 -43.4805886549937 48.7675909594511 -134.244388047667 297.741980904053
0.0125500000193715 0.05444999679178 0.00564999974519014 16 -0.085219029188156 -0.372859656082777 0.16047851639664 0.414777000682059 -17.4649781827667 7.44974958652204 -0.143138015549869 -20.5970905303895 6.46971322349576 -1.86199154866811 6.98593420886048 1.03516904691111 1.36705759183221 2.89716059557922 -7.12907222441034 -28.0468401169115 29.083370692563 -11.2728918026043 28.3460347046471
0.0153500000610948 0.05444999679178 0.00564999974519014 16 -0.132067299286524 -0.424831385497625 0.158642816284943 0.472325121927138 -12.1373038467788 -8.868355804562 0.22339855120909 -10.9510694497902 4.12406770825313 -2.19624025621898 -7.5478597646491 16.3903393073321 -2.06991947050297 18.5865795635511 7.77125831585819 -2.08271364522823 20.2531748575879 67.7261471291603 -92.9029857400902
0.018150000102818 0.05444999679178 0.00564999974519014 16 -0.156940681139628 -0.441875289938568 0.117234528658834 0.483350891138852 -7.70548248327786 -27.2151150070598 0.977527867805331 11.2684536851658 -0.986136281303847 -2.28844445856853 -12.6740969971538 36.1303614445637 -4.7875575734585 38.4188059031322 13.6516248649591 38.4835686922256 56.0656451649793 -402.868400840469 450.954152525089
0.0209500001445413 0.05444999679178 0.00564999974519014 16 -0.175417057673136 -0.366278671257508 0.0914890730559516 0.416294919053192 -3.32105892773027 -44.2169406973021 1.39437327301088 41.4784790324148 -8.21348326632901 -1.95763362893704 -10.3050894252537 55.8284608806498 -4.36678218240082 57.7860945095869 11.6994626982646 85.6954197297169 104.018340251858 -1861.92955076724 2035.35855659746
0.0237500001862645 0.05444999679178 0.00564999974519014 16 -0.173010781606038 -0.206141614181106 0.067772823771423 0.277525226404874 3.90470742919224 -54.9518797636579 1.03554072178094 69.3058185513576 -15.4875106201043 -1.11489440981781 -7.68328824321938 68.0793212500043 -1.62760500946007 69.1942156598221 8.71882896500031 124.257698315016 142.491519220774 -3656.84397499879 3850.72065121406