TITLE="DynamicStudio Exported Data"
VARIABLES= "X (m)[m]" "Y (m)[m]" "Z (m)[m]" "Status[-]" "U[m/s]" "V[m/s]" "W[m/s]" "Length[m/s]" "dU/dX[1/s]" "dU/dY[1/s]" "dU/dZ[1/s]" "dV/dX[1/s]" "dV/dY[1/s]" "dV/dZ[1/s]" "dW/dX[1/s]" "dW/dY[1/s]" "dW/dZ[1/s]" "Vorticity X[1/s]" "Vorticity Y[1/s]" "Vorticity Z[1/s]" "Vorticity Magnitude[1/s]" "Lambda-2[1/s²]" "Q-Criterion[1/s²]"
ZONE T="DynamicStudio Data" I=26 J=26 F=POINT
-0.0350500006899238 0.0600499968752265 0.00564999974519014 16 0.263609637220701 0.135988016903478 -0.257387554130983 0.392722719738112 1.17392320624486 12.1718004897418 0.77125731711604 -7.19450418092771 0.720795314923912 0.113137156799157 1.35351818482262 -13.837650903365 -0.274411866520046 -13.9507880601642 -0.582260867706581 -19.3663046706695 23.8750344882448 -88.5393416933572 88.4179362901751
-0.0322500006482005 0.0600499968752265 0.00564999974519014 16 0.266492754419645 0.116509040708964 -0.253813244619717 0.386023196025162 1.28145253830213 12.4766882896822 0.31286468115342 -12.168961719609 1.20739880377732 0.0399968580840721 2.37752446642639 -15.6223345033698 1.21192916446834 -15.6623313614538 -2.06465978527297 -24.6456500092912 29.2742123392821 -151.171992959665 156.272878835922
-0.0294500006064773 0.0600499968752265 0.00564999974519014 16 0.270481871763865 0.0689763836754719 -0.245306805816169 0.371609490510618 0.463400293312479 13.1566943029866 -0.515944372920649 -20.043370825266 1.74199425298487 -0.196131538482761 3.74020023458902 -18.3317083044709 3.92884521488702 -18.1355767659882 -4.25614460750967 -33.2000651282526 38.0691244458721 -257.835979470995 271.510706319224
-0.026650000564754 0.0600499968752265 0.00564999974519014 16 0.268913889726003 0.0041573956674741 -0.231935269795358 0.355142131267681 -2.39726255707304 13.9954588167927 -1.29881642360878 -25.6182845692111 1.66151079648078 -0.574432841525893 5.25421633241811 -19.6463642607854 6.43092324318523 -19.0719314192595 -6.55303275602689 -39.6137433860039 44.4514282269385 -340.330327398436 345.363751544051
-0.0238500005230308 0.0600499968752265 0.00564999974519014 16 0.257599471410116 -0.0763419576939972 -0.212368180738607 0.34247018317738 -7.29825630079419 14.4168202110085 -1.38762451651066 -29.2180383844796 1.07787291042535 -0.824011294514181 10.0900293060787 -18.4183630883482 7.25575977458589 -17.594351793834 -11.4776538225894 -43.6348585954881 48.4282834402029 -390.240265343176 367.055238787243
-0.0210500004813075 0.0600499968752265 0.00564999974519014 16 0.229028470118841 -0.160897341921106 -0.171056049532878 0.32802769219084 -13.8441178678411 13.6106424370761 -0.661138376155588 -31.0599234631144 0.836441571739709 -0.671351158896473 19.7828683233763 -15.0840373885107 6.45949503728852 -14.4126862296142 -20.4440066995319 -44.6705659001905 51.1970935906237 -288.647061300071 330.095223646755
-0.0182500004395843 0.0600499968752265 0.00564999974519014 16 0.179091930786769 -0.249099218194606 -0.096165464045868 0.321515375453887 -21.5871227102962 10.7456611671673 0.368397760199888 -28.6152042364291 2.02707687666441 -0.0437806734501608 30.6017279263885 -10.8139471057665 5.13987270175466 -10.7701664323164 -30.2333301661886 -39.3608654035964 50.7870895330457 66.6297146114768 151.447336135572
-0.015450000397861 0.0600499968752265 0.00564999974519014 16 0.102512546380361 -0.315273546354923 0.00606507305676739 0.331576561758788 -27.9003094213067 5.34833334103816 1.08422414218005 -21.3546787301524 4.69040496337398 0.839082735749169 35.0721349815044 -5.93615193567373 3.89428014756735 -6.7752346714229 -33.9879108393243 -26.7030120711905 43.7508027554793 14.5706287738303 -140.082812565934
-0.0126500003561378 0.0600499968752265 0.00564999974519014 16 0.0111607551574706 -0.361124700019112 0.108011437171372 0.377096913245659 -33.1565342042035 -2.50699524653794 1.37303752168271 -8.50139259179289 7.39890000874483 1.67019724742746 31.9513899989105 0.821850872098106 2.05473145675197 -0.848346375329355 -30.5783524772278 -5.99439734525495 31.1719125388051 59.7622264873557 -364.802963665722
-0.0098500003144145 0.0600499968752265 0.00564999974519014 16 -0.0996864962577819 -0.357302287844941 0.195724540375716 0.419416759489493 -35.5093031166676 -11.5025933359673 1.81949661018633 10.8124862005349 8.474535398243 2.44149913474792 25.7062588002194 10.0682273361073 -1.22893668731052 7.62672820135938 -23.8867621900331 22.3150795365022 33.566458938962 12.5393024788752 -214.683215708662
-0.00705000027269125 0.0600499968752265 0.00564999974519014 16 -0.20302436987559 -0.299525616679263 0.263928396791647 0.447875751122431 -32.7131725348816 -19.1765786144174 2.84121299570599 34.5752776059219 7.05127390532236 3.17650798730251 20.0123537184598 19.8710846905702 -5.32870244130275 16.6945767032677 -17.1711407227538 53.7518562203393 58.8457221228012 143.019839345713 449.13059245003
-0.004250000230968 0.0600499968752265 0.00564999974519014 16 -0.29228609085083 -0.167593973014203 0.317595692149674 0.463018274334367 -20.3422921403459 -23.3253071186338 4.03388561139627 56.8042929102721 3.69159216285531 3.62786886068292 10.9049590287438 26.3875535444926 -8.28959877085387 22.7596846838096 -6.87107341734752 80.1296000289059 83.5821015385798 -961.931884109686 1248.1898124838
-0.00145000018924474 0.0600499968752265 0.00564999974519014 16 -0.31855622847875 0.0114906648647351 0.328585386694176 0.457797403258909 2.94996073025695 -22.9949617909338 4.46341952369435 65.8873269533912 -0.598123204240536 3.34537063309084 -8.54678243327869 26.5744087502595 -8.65930217684514 23.2290381171687 13.010201956973 88.882288744325 92.784237989217 -1430.74682952145 1442.1934829796
0.0013499998524785 0.0600499968752265 0.00564999974519014 16 -0.271355049610138 0.191388125566494 0.2650579015119 0.42487488594958 28.2076743520086 -18.9379207806244 3.52087636509225 55.4644859445813 -4.76461506032285 2.17064352367106 -33.6259950298576 20.7179595461146 -6.80599505302111 18.5473160224436 37.1468713949498 74.4024067252057 85.2033515336825 -420.729704751508 829.851651796263
0.00414999989420176 0.0600499968752265 0.00564999974519014 16 -0.153347218036652 0.312160530911254 0.129169398073185 0.371004447058206 43.7959905041713 -12.6483729560111 1.64760563964902 30.105499912096 -7.64815544222009 0.693902048531322 -49.5435114170391 11.9315714051067 -4.36039031519526 11.2376693565753 51.1911170566881 42.7538728681071 67.6365975142269 6.81647628123272 -38.4427951474264
0.006949999935925 0.0600499968752265 0.00564999974519014 16 -0.0167135910193126 0.353664396724974 -0.0256803225446492 0.354989195049086 43.6793686492575 -5.56343797405167 -0.0523894071341215 2.48686021483614 -8.39033099595827 -0.218432596466811 -47.8064248101304 3.71306307900796 -2.62378427615544 3.93149567547477 47.7540354029962 8.05029818888781 48.5871573200872 67.57695513858 -446.933186465571
0.00974999997764826 0.0600499968752265 0.00564999974519014 16 0.102005585034688 0.326305807971706 -0.149643241506225 0.373193943443389 32.2183468362904 1.10691102967013 -0.816024260055089 -16.8816025226281 -7.0447658585046 -0.257510167567845 -33.1819500056287 -2.23759989011482 -1.60576639769514 -1.98008972254697 32.3659257455736 -17.9885135522982 37.0818085386695 31.8117425073813 -276.360649145921
0.0125500000193715 0.0600499968752265 0.00564999974519014 16 0.17478825211525 0.263886379434112 -0.218555575996482 0.3846472333548 19.8672063487151 6.60494038128873 -0.718500596363955 -24.8491570521966 -4.69214465614816 0.195327477797649 -19.9397870441535 -6.25844126063712 -0.561722330614411 -6.45376873843477 19.2212864477895 -31.4540974334854 37.4228436785924 5.88132665861274 49.2789203959468
0.0153500000610948 0.0600499968752265 0.00564999974519014 16 0.222693362633387 0.192882341490282 -0.264853070621612 0.396160422603566 10.7722447003673 10.5815913725372 -0.204817309052327 -27.1270400624069 -2.48967989983987 0.421969548205647 -13.0282470661775 -9.58793676869936 0.735122469547551 -10.009906316905 12.8234297571252 -37.7086314349441 41.0679858272304 -168.288047659003 267.693918311275
0.018150000102818 0.0600499968752265 0.00564999974519014 16 0.242095947066943 0.115246381377801 -0.295197953436873 0.398790681586513 4.75438022750886 13.0574931174464 0.538339457834673 -27.2526343993749 -1.0102200719383 0.00241662199714562 -8.34470161530683 -12.8133102833079 1.50714645667265 -12.8157269053051 8.8830410731415 -40.3101275168214 43.2210325563941 -366.163854058843 361.214360549213
0.0209500001445413 0.0600499968752265 0.00564999974519014 16 0.254171419541041 0.0409339789429214 -0.317108949037114 0.408456590965344 -0.597006901480978 14.27178234474 1.44544112751815 -28.0360326818736 -0.196697673776845 -0.952138216825346 -2.5506246243865 -15.4247410942123 1.19862237460109 -14.4726028773869 3.99606575190465 -42.3078150266136 44.8929391760692 -387.670020775704 388.290526304253
0.0237500001862645 0.0600499968752265 0.00564999974519014 16 0.241889073053996 -0.042856178158739 -0.315135832040881 0.399571731113943 -7.23165035036649 14.332189209185 2.05853987551681 -26.8002911461998 0.266709830564365 -2.03441764944916 6.72473326214324 -16.4792709048723 0.261427556444016 -14.4448532554231 -4.66619338662643 -41.1324803553848 43.8441340030593 -347.822521454935 332.988412796801
0.0265500002279878 0.0600499968752265 0.00564999974519014 16 0.213298932909965 -0.110299587247282 -0.281527871444693 0.370027534283099 -13.0230886389525 13.3666796244087 1.81664563965023 -22.3950283957781 0.93762869365574 -2.65138885921517 15.1063710218352 -15.3152299312974 -0.265920150474496 -12.6638410720822 -13.289725382185 -35.7617080201868 40.1981272194855 -111.731439631405 222.300562421289
0.029350000269711 0.0600499968752265 0.00564999974519014 16 0.165018473068873 -0.166970243904507 -0.226272673455921 0.326051348036475 -16.1059626555295 11.7428148100779 0.732861483813682 -15.7531525098885 2.1784193651543 -2.515040358438 19.7750407837076 -12.2185856723281 0.255403155147322 -9.70354531389007 -19.0421792998939 -27.4959673199665 34.8251576164228 11.599823898533 101.121071335304
0.0321500003114343 0.0600499968752265 0.00564999974519014 16 0.116880825360616 -0.194815086639331 -0.161463210249397 0.278719237913909 -12.0779850982217 10.1806935475497 -0.512307117790605 -8.12012926818031 3.58933223248078 -1.94282305524188 15.4369240496418 -8.66297922663374 1.35678729658002 -6.72015617139186 -15.9492311674324 -18.30082281573 25.1884614363966 -9.48958473810516 18.8771603548874
0.0349500003531575 0.0600499968752265 0.00564999974519014 16 0.0929167632261911 -0.208988751485012 -0.131421189379568 0.263782774558227 -8.25089145594343 9.46874743182874 -1.13288383208608 -5.35605653673418 4.32540661487042 -1.54485139117738 9.76762464542655 -6.67417389758831 2.02350577827665 -5.12932250641094 -10.9005084775126 -14.8248039685629 19.1025089228985 -8.99682703968231 7.8384220444074
-0.0350500006899238 0.0572499968335032 0.00564999974519014 16 0.230521113872528 0.134598206230924 -0.221053169866015 0.34658500395924 0.891920201316948 21.1840556290898 1.28993698735416 -7.6944225903394 1.11528144889934 -0.221171842626537 2.61076794053186 -25.6212975483736 -0.0794103061699069 -25.4001257057471 -1.3208309531777 -28.8784782194292 38.4821709957309 -155.356193844961 154.799990023167
-0.0322500006482005 0.0572499968335032 0.00564999974519014 16 0.232628929217656 0.112988556691901 -0.211472967113368 0.334071023095395 0.845056555635736 21.612823346752 0.85530193755928 -12.7924438779544 1.74320191409756 -0.249277390522038 4.09725423266589 -27.1652160331813 1.38796843422504 -26.9159386426592 -3.24195229510661 -34.4052672247065 43.8029727359069 -266.700598583301 271.270291318788
-0.0294500006064773 0.0572499968335032 0.00564999974519014 16 0.234495653708776 0.0634529186651343 -0.192198080971527 0.309765373830853 -0.253956474363974 22.5399074259934 0.0136050526686378 -20.5749496535403 2.72006441764818 -0.364677056859771 5.11645187154247 -29.3580728360072 4.02334615003186 -28.9933957791474 -5.10284681887384 -43.1148570795338 52.2067710690079 -445.634227808607 462.212863220803
-0.026650000564754 0.0572499968335032 0.00564999974519014 16 0.230098516146342 -0.000951432102192484 -0.175038265559512 0.289110059952738 -3.04294229341278 23.6233557587409 -0.841875645603861 -25.5698430951535 3.23002959069958 -0.586577561539875 4.69134828023193 -29.7332377686696 6.22084673126029 -29.1466602071297 -5.53322392583579 -49.1931988538944 57.4466289848423 -572.669036695515 581.88922963841
-0.0238500005230308 0.0572499968335032 0.00564999974519014 16 0.21669154326121 -0.0786199164342058 -0.159136507417328 0.280108450736552 -7.206623503609 24.0369488998236 -1.09765223764896 -28.8610241026427 3.01911979682351 -0.752377033578259 7.57757290553579 -27.0672470400863 6.65691651851288 -26.314870006508 -8.67522514318475 -52.8979730024663 59.7153871503318 -658.322533710087 632.050204087324
-0.0210500004813075 0.0572499968335032 0.00564999974519014 16 0.189558896621068 -0.16217795715158 -0.12871402993643 0.28071616728741 -12.2098779703837 22.579802129825 -0.587162836796864 -31.1248182109582 2.80747737572563 -0.631870070912439 16.0307254531382 -21.9140896692511 5.58627697950802 -21.2822195983386 -16.617888289935 -53.7046203407833 60.110509299093 -674.971571379657 611.554655213623
-0.0182500004395843 0.0572499968335032 0.00564999974519014 16 0.14696183681488 -0.252729375791581 -0.0666780944882581 0.299859779151174 -17.6515663575916 17.9649996362993 0.232257841330633 -30.1016985064878 3.96198795865321 -0.081231936391554 26.2443464832459 -15.2279287834518 4.23717828483641 -15.1466968470602 -26.0120886419152 -48.0666981427871 56.7138312163921 -228.101446243509 405.504075636706
-0.015450000397861 0.0572499968335032 0.00564999974519014 16 0.0856214861075084 -0.329314938674991 0.0238613378008207 0.341099298092823 -21.6384597446183 9.56670288228272 0.764909375236795 -23.6913421636531 6.89736963330942 0.790063695770976 29.5369674712348 -6.96131155340383 3.1086615541059 -7.75137524917481 -28.772058095998 -33.2580450459358 44.6543693899096 16.8502712091129 14.4812923118946
-0.0126500003561378 0.0572499968335032 0.00564999974519014 16 0.0164218294620513 -0.382394997769152 0.107520766639306 0.397562983765408 -24.8848047479413 -2.34843338814252 0.925685531369698 -10.2882224996202 10.1180312928472 1.72120414125638 24.1860252011251 4.08655315206047 1.30485325339159 2.3653490108041 -23.2603396697554 -7.93978911147764 24.6916692151432 125.277443846606 -324.6373565626
-0.0098500003144145 0.0572499968335032 0.00564999974519014 16 -0.0660983482996622 -0.383814393081702 0.167382030406346 0.423909452699005 -26.99873609417 -16.1321971704259 1.27541713644794 11.0174845582274 11.3413177131492 2.64147851033068 16.6206286736696 17.8554225883926 -2.05541774528493 15.2139440780619 -15.3452115372217 27.1496817286532 34.6993491221326 14.8672574670715 -164.645424785352
-0.00705000027269125 0.0572499968335032 0.00564999974519014 16 -0.147675743103027 -0.319571272589965 0.204718650653182 0.407239056686684 -26.0939570069504 -28.703984628038 2.26916028796749 37.2100837985456 8.97593366047323 3.53689021350986 12.0694048480547 31.6163824671932 -6.23106508458872 28.0794922536834 -9.80024456008717 65.9140684265836 72.3129801294797 -497.014752869219 801.31247600383
-0.004250000230968 0.0572499968335032 0.00564999974519014 16 -0.223125720818838 -0.178506372019959 0.236763248234056 0.371088194176256 -17.4714172405148 -36.8111655543949 3.52608481755725 60.7425348646273 3.52277942765012 4.11716831301664 7.52680790253799 40.7653261791634 -9.07619280178914 36.6481578661467 -4.00072308498074 97.5537004190222 104.28718869367 -2065.64899029911 2106.67821169606
-0.00145000018924474 0.0572499968335032 0.00564999974519014 16 -0.252359350522359 0.0139035630039871 0.248529971980218 0.354465369017568 1.45168933805576 -38.2938841712582 4.03469140350214 70.0355706596948 -3.13380111064341 3.91938888892297 -5.85113840459398 41.3855482080955 -9.05791312773191 37.4661593191725 9.88582980809612 108.329454830953 115.050917028487 -2506.48684363812 2554.02262737057
0.0013499998524785 0.0572499968335032 0.00564999974519014 16 -0.216620870828629 0.206077296364626 0.204190217562864 0.362058142711743 23.338957066963 -33.2792424974478 3.1217187443971 58.4062983774261 -8.83502663109775 2.79842942616931 -26.2759991164451 33.2920580007132 -6.66711184831026 30.4936285745439 29.3977178608422 91.685540874874 100.996661353661 -1702.59257416185 1629.6785375986
0.00414999989420176 0.0572499968335032 0.00564999974519014 16 -0.118252510229746 0.335569508608508 0.097264929326872 0.368850942469114 36.7888326226963 -23.4998832724651 1.22966592452145 31.2824577871593 -11.9926168117068 1.32526208374635 -40.6898213085118 20.017168025776 -3.86124050030064 18.6919059420297 41.9194872330332 54.7823410596244 71.4684241438073 12.9731222591848 221.702474065859
0.006949999935925 0.0572499968335032 0.00564999974519014 16 -0.00174769401550301 0.379555355395811 -0.0340932700853834 0.381087487736251 36.1934787211935 -11.3684804569127 -0.421346487141602 1.70032360012815 -12.1356462208161 0.346520528649387 -40.4875413501561 6.58409723264066 -2.17120377266581 6.23757670399127 40.0661948630145 13.0688040570409 42.6028282326485 138.504224378718 -491.476422504161
0.00974999997764826 0.0572499968335032 0.00564999974519014 16 0.0974319005012512 0.346581863254833 -0.141378820812873 0.386781506986717 25.4989741502689 0.613332489265354 -1.02684129095953 -18.8984590631037 -9.78077477811707 0.174862502941019 -28.0864651978668 -3.84671671205459 -1.49080591565279 -4.0215792149956 27.0596239069073 -19.5117915523691 33.6021778304451 63.3439009176533 -289.409164573664
0.0125500000193715 0.0572499968335032 0.00564999974519014 16 0.155387531518936 0.277539138032977 -0.201276650653842 0.376411408156109 14.7550183795827 10.6122166938797 -0.71948135884807 -27.1681890313863 -6.22909332590397 0.486511942833953 -16.1938900948659 -11.3478180122633 -0.841134867494377 -11.8343299550972 15.4744087360178 -37.7804057252659 42.5072670020217 -67.2306057309821 183.102516766795
0.0153500000610948 0.0572499968335032 0.00564999974519014 16 0.192047005097071 0.198996058561994 -0.23877717711924 0.365371076856113 7.43436891269464 17.7367301202686 -0.0205093902983054 -28.8784177623843 -2.89283856550635 0.631418510683265 -9.37025896653293 -17.6418712251747 0.221013347788045 -18.2732897358579 9.34974957623463 -46.6151478826529 50.934300299803 -521.955549176743 502.653237633375
0.018150000102818 0.0572499968335032 0.00564999974519014 16 0.205277520020803 0.118590138490642 -0.259512200564435 0.351495467132815 2.93435199278116 22.0693335610325 0.803358441754091 -28.1971032864739 -0.690145254397147 0.187977748114836 -5.06977939572331 -23.4996570395332 0.995323421253071 -23.6876347876481 5.8731378374774 -50.2664368475065 55.8776562074266 -631.671288004965 630.990122997526
0.0209500001445413 0.0572499968335032 0.00564999974519014 16 0.21375617146492 0.0408442418967995 -0.273163989911645 0.349254231642101 -1.12397740324561 24.0115692217603 1.65675923952606 -28.4000711083806 0.347187926488356 -0.783718818668931 -0.80507915565529 -27.6496477908799 0.764665326500424 -26.8659289722109 2.46183839518135 -52.4116403301409 58.9475939281658 -663.464563007368 660.610330985279
0.0237500001862645 0.0572499968335032 0.00564999974519014 16 0.201029399633408 -0.0426968358363956 -0.267234827058079 0.337120589849048 -6.49863470063939 23.7853884523162 2.1502206890323 -27.1537345941979 0.910200632879685 -1.87856352103106 6.05336366594181 -28.372313726523 -0.162236579663045 -26.4937502054919 -3.90314297690951 -50.9391230465141 57.5495228633314 -583.022277194821 574.538450898904
0.0265500002279878 0.0572499968335032 0.00564999974519014 16 0.175508275429408 -0.11256831618802 -0.237099317355339 0.315738605248041 -11.4347515963871 21.7858722882824 1.85546685083649 -23.401291693703 2.04626775777217 -2.49925834485177 12.3517077211916 -25.3342944875362 -0.78507194351405 -22.8350361426845 -10.4962408703551 -45.1871639819854 51.7057998369724 -374.08205391419 407.554492827068
0.029350000269711 0.0572499968335032 0.00564999974519014 16 0.13177463332812 -0.171980472152742 -0.191331708938621 0.28904957989247 -14.2254272691783 18.8582881308093 0.8673213514801 -17.3495638657507 4.23534552105969 -2.34476545582271 16.3723308913521 -20.2091360475269 -0.439584152370838 -17.8643705917042 -15.505009539872 -36.20785199656 43.2498509092698 -102.756656720941 209.739200020063
0.0321500003114343 0.0572499968335032 0.00564999974519014 16 0.0898340050379436 -0.205387895129776 -0.139011526860025 0.263777445068665 -10.7943105602923 16.2147852940381 -0.203630688803349 -9.5264998876574 6.7678232072901 -1.71356805354935 13.0003790291505 -15.5550832832449 0.47013984354123 -13.8415152296956 -13.2040097179538 -25.7412851816955 32.0709709751839 -36.5825120927669 55.515734983181
0.0349500003531575 0.0572499968335032 0.00564999974519014 16 0.0670523206392923 -0.220755185222564 -0.115355269394155 0.257945156346773 -7.61097985849218 14.9551222621986 -0.744244953732766 -6.13867320434169 8.18970792183981 -1.25647431887446 8.29258476673838 -13.2897934128727 0.99679883093528 -12.0333190939982 -9.03682972047115 -21.0937954665403 25.9116434638756 -8.07498347551816 19.5232119551547
-0.0350500006899238 0.05444999679178 0.00564999974519014 16 0.147151833772659 0.129922808584136 -0.116037845153672 0.228031532646154 0.276730512949668 34.6722854860669 2.1213009400874 -8.73723544115012 0.0920394436154981 -1.03513916916576 4.49669860788433 -41.0782867373895 0.302854378346593 -40.0431475682238 -2.37539766779693 -43.409520927217 59.1056908290667 -235.367841852733 251.016480704642
-0.0322500006482005 0.05444999679178 0.00564999974519014 16 0.147857264677683 0.106322084295303 -0.103072690983148 0.209260927918643 -0.107778530321889 35.4014160838181 1.74041453461653 -14.2001740649618 1.21945344902827 -0.945184951644768 6.48016425782606 -42.5459218335262 1.65633466071509 -41.6007368818814 -4.73974972320953 -49.6015901487799 64.9107408819352 -451.514176472292 452.924208203199
-0.0294500006064773 0.05444999679178 0.00564999974519014 16 0.146226121584574 0.0523355371297415 -0.076443597439987 0.17310317925992 -1.80599655452753 36.9792071706979 0.890369025938753 -22.1197758586942 3.19514733763897 -0.792156693016185 6.68622922311847 -44.3057524074365 3.98693372063424 -43.5135957144203 -5.79586019717972 -59.0989830293921 73.618712312371 -774.647993637116 776.689491356045
-0.026650000564754 0.05444999679178 0.00564999974519014 16 0.137272655169169 -0.015709741213747 -0.0614632484472046 0.151222712367816 -4.43733635413453 38.8421929788357 -0.111240643592055 -26.0089153509292 4.66908062551716 -0.705849549976904 2.96596259802617 -43.7749791441443 5.50220541522735 -43.0691295941674 -3.07720324161822 -64.8511083297649 77.9107525017459 -958.588945380305 960.231518875083
-0.0238500005230308 0.05444999679178 0.00564999974519014 16 0.121315331061681 -0.092894090389212 -0.0593514542518339 0.163918628293589 -7.00606020992196 39.6224306047877 -0.693311860121751 -28.2855408465079 4.74357941903416 -0.709087948669943 2.50294211168019 -39.6409533966663 5.15803023429683 -38.9318654479963 -3.19625397180194 -67.9079714512957 78.3415520228131 -1070.3179936671 1049.4645290893
-0.0210500004813075 0.05444999679178 0.00564999974519014 16 0.0982288511594136 -0.175235696657522 -0.0498090410868948 0.206971971911999 -8.74817221738637 37.4173083281019 -0.611939307585554 -30.7882349653034 4.04315533834251 -0.631843909254966 8.73903020060865 -32.4277847211163 3.66076951485962 -31.7959408118613 -9.3509695081942 -68.2055432934054 75.8315146809238 -1112.39613285466 1084.2771368389
-0.0182500004395843 0.05444999679178 0.00564999974519014 16 0.0719844162464143 -0.266767485220529 -0.0128152219112962 0.276605996438721 -9.36995662741545 30.2887953384542 -0.213091941479448 -31.8563947854862 4.30675778875861 -0.194900661556639 17.2686821996722 -22.8465860708124 2.43189412359515 -22.6516854092557 -17.4817741411516 -62.1451901239404 68.4159041052797 -923.101871206556 911.451526968023
-0.015450000397861 0.05444999679178 0.00564999974519014 16 0.0432577836513519 -0.354987087106177 0.047078410636071 0.360698550879504 -8.49025967696206 17.2572822946384 -0.0434828117396428 -26.8906906059808 6.32542083542855 0.670050017533023 17.8429524956159 -10.4435240416677 1.69250286152931 -11.1135740592007 -17.8864353073555 -44.1479729006192 48.9129799501866 -409.772313658897 414.465322703763
-0.0126500003561378 0.05444999679178 0.00564999974519014 16 0.0182150840759276 -0.418961982177261 0.0880997792652488 0.428511963548719 -7.61685474764216 -1.24373150289175 -0.152484307543029 -12.5156490547815 8.53153417337989 1.76182698029893 8.23399486186574 6.15465656774628 0.169273189724174 4.39282958744734 -8.38647916940877 -11.2719175518898 14.7202618842153 93.5456242619794 -89.9826178684844
-0.0098500003144145 0.05444999679178 0.00564999974519014 16 -0.00804319858551028 -0.427645443005798 0.0933461162246143 0.43778855099389 -8.92003953528722 -22.8066142797903 0.000806862387673133 11.9340052419139 8.61915362455273 2.89109346732945 -1.66769763451606 26.6261437788593 -3.04904473391923 23.7350503115298 1.66850449690373 34.7406195217042 42.1075666038642 -138.353566180184 119.231153138498
-0.00705000027269125 0.05444999679178 0.00564999974519014 16 -0.0394336255391439 -0.352444275199911 0.0787075062534617 0.36327241773219 -11.4921295278592 -42.9153508601522 0.917976362522509 41.679474477459 5.59862631462876 3.97681970615003 -3.92586081945587 47.1487758757548 -7.04689232297956 43.1719561696048 4.84383718197838 84.5948253376111 95.0976604972842 -1571.79550664504 1581.98168104114
-0.004250000230968 0.05444999679178 0.00564999974519014 16 -0.0757963244120281 -0.1880650117128 0.0720925000925005 0.215199581771193 -10.3999254532761 -56.4814892001251 2.22520333547728 66.6212589746984 0.703665758467363 4.71495972712949 0.309116666257433 61.2127890675757 -9.43135064532257 56.4978293404462 1.91608666921985 123.102748174823 135.462034225462 -3471.6504438388 3557.69499030023
-0.00145000018924474 0.05444999679178 0.00564999974519014 16 -0.0972214110692342 0.0324891609863456 0.0835158333438449 0.13222118881256 -0.916504597914637 -59.7020684345302 2.81722599079088 75.6593014767289 -4.14220863034427 4.67683737774528 -0.936310526578118 62.8954303969083 -8.6500087590818 58.218593019163 3.753536517369 135.361369911259 147.398080292014 -4199.10361122619 4273.05716004306
0.0013499998524785 0.05444999679178 0.00564999974519014 16 -0.0782969252268473 0.247362265305419 0.0704963662089237 0.268864717740483 13.0500971272455 -52.0596562326526 2.01482682901383 62.1030737523254 -7.76148930182328 3.77370789745908 -11.4198494173085 51.2179430271381 -5.52923754258986 47.4442351296791 13.4346762463224 114.162729984978 124.356643933916 -2975.05538155885 2932.26197525607
0.00414999989420176 0.05444999679178 0.00564999974519014 16 -0.0204074800014495 0.385268939106415 0.020796634911773 0.38636915081803 21.3933950916207 -36.1547179868422 0.280454590995017 32.5750916978204 -9.59330840677457 2.48689285002736 -21.8104005538346 30.7572625482617 -2.44892078770502 28.2703696982343 22.0908551448297 68.7298096846626 77.5306805283859 -764.950328748376 873.239149818162
0.006949999935925 0.05444999679178 0.00564999974519014 16 0.0456864937146504 0.428377209424507 -0.0556665491949146 0.434388137454899 19.8046347161389 -16.5018392662643 -1.07362088699707 0.479344774653171 -9.52193408285136 1.51549457358812 -24.3238573829992 9.14722861956304 -1.17390857274187 7.63173404597492 23.2502364960021 16.9811840409174 29.7855245564021 81.0181716165073 -232.716482976972
0.00974999997764826 0.05444999679178 0.00564999974519014 16 0.0946483437220256 0.383050059390565 -0.122770178947054 0.413228960513575 11.1723669337235 2.2317990091577 -1.27969139255688 -21.7804651891775 -7.77382057400165 1.11347505169602 -16.6553353435698 -8.0167712571956 -1.36585406283873 -9.13024630889162 15.375643951013 -24.0122641983352 29.939282832092 29.8386764813574 -55.2714881439209
0.0125500000193715 0.05444999679178 0.00564999974519014 16 0.111005660295487 0.300434888137194 -0.154654742303731 0.355670448511932 4.11502505241723 17.1995153482543 -0.601407255708059 -30.5626692299434 -5.04901570158383 1.07423631992805 -7.98411885475913 -20.1565710513907 -1.58118076218405 -21.2308073713187 7.38271159905107 -47.7621845781977 52.7870996349926 -521.65584039264 523.214294147415
0.0153500000610948 0.05444999679178 0.00564999974519014 16 0.119918250640233 0.206158940906947 -0.168711648395013 0.292139548943053 0.501997483480103 27.6473666782454 0.35401520989175 -31.5398409156976 -2.32936711011109 0.970731757410343 -1.54285516896365 -29.8996928761554 -1.0236947549642 -30.8704246335657 1.8968703788554 -59.187207593943 66.7810360585948 -895.27608360666 902.265654652778
0.018150000102818 0.05444999679178 0.00564999974519014 16 0.116210358937581 0.119179006852986 -0.162368787789795 0.232534097386153 -1.01024184703704 34.1917285065142 1.22282758661723 -29.6986257590931 -0.369114795287911 0.471981475311976 2.24526778281617 -39.1843580379056 -0.252921488770235 -39.6563395132176 -1.02244019619894 -63.8903542656073 75.2040425491023 -1028.51779903642 1031.91782885128
0.0209500001445413 0.05444999679178 0.00564999974519014 16 0.117291935284932 0.0370910758447523 -0.158748455178769 0.200833806944577 -2.34922827046982 37.4193375528288 1.91876109313824 -28.9355910337771 0.630594421842286 -0.449616597447559 3.65318975181126 -46.807683372565 -0.260105866097649 -46.3580667751174 -1.73442865867302 -66.354928586606 80.9632950517199 -1049.89840820745 1053.66115499222
0.0237500001862645 0.05444999679178 0.00564999974519014 16 0.105939909617106 -0.0451120182994055 -0.150960673192555 0.189861748373588 -5.07987129900381 37.4520057878616 2.2114897881652 -27.728294465577 1.1776615122266 -1.48341217795151 5.49300646889822 -49.9829291473448 -1.06321655273382 -48.4995169693933 -3.28151668073302 -65.1803002534386 81.3107805836275 -935.891049867382 950.353756434808