TITLE="DynamicStudio Exported Data"
VARIABLES= "X (m)[m]" "Y (m)[m]" "Z (m)[m]" "Status[-]" "U[m/s]" "V[m/s]" "W[m/s]" "Length[m/s]" "dU/dX[1/s]" "dU/dY[1/s]" "dU/dZ[1/s]" "dV/dX[1/s]" "dV/dY[1/s]" "dV/dZ[1/s]" "dW/dX[1/s]" "dW/dY[1/s]" "dW/dZ[1/s]" "Vorticity X[1/s]" "Vorticity Y[1/s]" "Vorticity Z[1/s]" "Vorticity Magnitude[1/s]" "Lambda-2[1/s²]" "Q-Criterion[1/s²]"
ZONE T="DynamicStudio Data" I=26 J=26 F=POINT
-0.0350500006899238 0.0600499968752265 0.00564999974519014 16 -0.0776915655533472 0.41858493286379 0.227089939780999 0.482513384403429 10.2379446358457 -4.18523229217015 4.9218692689477 -3.98840290860971 -10.1063406462573 1.18628920419284 -10.4173486764925 1.2364964524407 -4.97642095362882 0.0502072482478579 15.3392179454401 0.196829383560441 15.3405628890117 73.9132592513374 -71.0094795838589
-0.0322500006482005 0.0600499968752265 0.00564999974519014 16 -0.0498659310738245 0.406813984628146 0.201945084861169 0.456909232200963 17.8914195187604 -2.57724860893197 3.83995174370186 -7.98081695117815 -9.86266691899943 0.810269910647534 -23.7155469739885 -0.494240352908486 -2.82036435396694 -1.30451026355602 27.5554987176903 -5.40356834224618 28.1105995567096 103.17230862763 -128.202644404169
-0.0294500006064773 0.0600499968752265 0.00564999974519014 16 0.0248672238985697 0.373682502676384 0.0939302955598881 0.38610865317275 24.0861374587388 0.980359626487436 2.03779530705414 -17.0098493795435 -8.84062597958026 0.0209639912689985 -34.7526479687985 -4.24142958291601 0.26597060231676 -4.26239357418501 36.7904432758526 -17.990209006031 41.1746564708883 58.8479495039368 -121.298204879125
-0.026650000564754 0.0600499968752265 0.00564999974519014 16 0.0890475757916769 0.312577592541541 0.00590219382196666 0.325067774479957 21.6186925937627 5.39611590051571 0.0910467912905142 -24.2578923176015 -7.04416261631132 -0.884675955368566 -32.8633590761694 -7.78272667764063 3.16802844282366 -6.89805072227207 32.9544058674599 -29.6540082181172 44.8657572458604 4.53971859558119 20.8922500108486
-0.0238500005230308 0.0600499968752265 0.00564999974519014 16 0.150952099164327 0.24023326402336 -0.0905615293847707 0.297825364920356 15.2343568679443 9.53758051450581 -1.3763564004996 -26.7016516963917 -5.00634848204331 -1.69027030298 -25.0226445039751 -10.5113946338611 4.84144573425754 -8.82112433088113 23.6462881034754 -36.2392322108975 44.1615344702692 -30.6007379618044 175.711826000767
-0.0210500004813075 0.0600499968752265 0.00564999974519014 16 0.179227478106817 0.16532440726541 -0.137558239169108 0.279958778589803 8.17799098705802 12.0866297465805 -2.0374699177343 -23.8259334215437 -3.41994644864506 -2.01494139062205 -12.1277408324299 -12.2112168425146 5.18678066986975 -10.1962754518926 10.0902709146956 -35.9125631681242 38.6715631120249 -201.325165173244 235.371084475857
-0.0182500004395843 0.0600499968752265 0.00564999974519014 16 0.198843479553859 0.109187550003408 -0.160185456993446 0.277704935262288 2.79927057177127 12.2640078685982 -1.89706476919349 -20.9698992816331 -2.39545465368663 -1.69186637292199 -3.75141271721762 -12.9172712556917 4.57665804407014 -11.2254048827698 1.85434794802413 -33.2339071502313 35.1274950083926 -223.426144173053 223.346641677454
-0.015450000397861 0.0600499968752265 0.00564999974519014 16 0.193845578034719 0.0504445538650422 -0.161843774275233 0.257515375094207 -1.0764882990721 10.4797574475112 -1.25218565291646 -21.0080804607843 -1.62029771535592 -0.979462654835146 5.04133346649886 -12.4014318326908 3.18691657580299 -11.4219691778556 -6.29351911941532 -31.4878379082955 34.0815741852606 -209.060145995514 207.475333239352
-0.0126500003561378 0.0600499968752265 0.00564999974519014 16 0.189498329162598 -0.00555174899285097 -0.132349730877904 0.231207460813334 -4.46057615748086 7.99933438879201 -0.613393672722726 -22.7103941929687 -0.577307898699565 -0.155391325458299 11.8911160356732 -10.2753311662904 1.88762142244961 -10.1199398408321 -12.504509708396 -30.7097285817608 34.6679012199303 -187.390542699574 180.430783239479
-0.0098500003144145 0.0600499968752265 0.00564999974519014 16 0.165316588878632 -0.072718533007428 -0.0922863474259308 0.202815999177675 -6.9832727060874 5.82463984523682 -0.0796528077745038 -26.675023551728 0.693081701035594 0.446194265722261 14.6612410901068 -6.86745376753763 1.16652857625964 -7.31364803325989 -14.7408938978813 -32.4996633969648 36.4281693388374 -100.155009332751 147.426766478045
-0.00705000027269125 0.0600499968752265 0.00564999974519014 16 0.147993820508321 -0.152107236895633 -0.0435989218051933 0.216655598605826 -11.1724586941267 4.02836429368245 0.563616663806998 -27.6185983683968 1.86133657630586 0.979777506378495 12.3333747268746 -3.03961428287074 0.569894522323868 -4.01939178924923 -11.7697580630676 -31.6469626620792 34.0031316345078 5.34656928398052 81.1825621879079
-0.004250000230968 0.0600499968752265 0.00564999974519014 16 0.101141757965088 -0.22410363170847 -0.0181790424666057 0.246541214676566 -17.013895502511 2.25482408204393 1.34907957698806 -26.4623948050678 2.73902455458498 1.66595265384391 8.64899214591651 -0.215731725820131 -0.728494023543733 -1.88168437966404 -7.29991256892845 -28.7172188871118 29.6902024282247 -0.544756919595232 12.1569458724852
-0.00145000018924474 0.0600499968752265 0.00564999974519014 16 0.0509556142489116 -0.297997348521991 0.00509133976767771 0.302365368536562 -24.8581459362837 0.410873602334219 2.092875426286 -18.6284584430639 3.49864450004966 2.41705607791673 11.7735498286931 1.10209742766881 -2.67322442201243 -1.31495865024792 -9.68067440240709 -19.0393320453981 21.3995499455527 7.77898954258732 -49.521537256254
0.0013499998524785 0.0600499968752265 0.00564999974519014 16 -0.0400538611412049 -0.325293977709759 0.0448533432884142 0.330805541263601 -32.9273376891169 -2.07926524986499 2.50433335517773 -2.8876587721702 4.85333682203135 2.95136360390579 24.8350451778634 2.18237132023081 -3.9733556982418 -0.768992283674987 -22.3307118226857 -0.808393522305203 22.3585674793152 28.2612511798864 -122.899880979819
0.00414999989420176 0.0600499968752265 0.00564999974519014 16 -0.138922894001007 -0.310167750491334 0.146040313962925 0.369907254896223 -32.9400924048665 -6.11604458393774 2.68953738954312 20.2006999880862 6.67878263923052 2.80428030162373 38.3379946254188 5.26299885777736 -2.98122899436444 2.45871855615363 -35.6484572358757 26.316744572024 44.3782474316594 -2.77807791588606 -136.030751440586
0.006949999935925 0.0600499968752265 0.00564999974519014 16 -0.233345003525416 -0.209629119910921 0.273007284505293 0.415845206751091 -22.3892687780223 -11.6146752683595 2.83820875608562 48.4599269233992 7.77774597334908 2.25936105483182 36.494061760731 10.5757551236184 -0.178184838141379 8.31639406878654 -33.6558530046454 60.0746021917586 69.3601952150922 -14.2299073220362 263.839606598989
0.00974999997764826 0.0600499968752265 0.00564999974519014 16 -0.275511995951335 -0.0389851430120568 0.367595211524361 0.461034641675003 -1.8439615806804 -16.8513153607805 2.72339883504072 65.6173769636756 6.33723062196179 2.01589432583396 11.0853626235277 15.3925725631853 2.02682154976406 13.3766782373514 -8.36196378848698 82.4686923244561 83.9639397168296 -998.440124125678 1041.94089374403
0.0125500000193715 0.0600499968752265 0.00564999974519014 16 -0.252493127584457 0.151777686907294 0.34426535031215 0.453109122779333 18.5986184793853 -18.9473930583857 1.93105000076406 63.0294187242615 1.99113048087838 2.45907659542274 -26.9323835998241 16.5132765579366 2.0961496335938 14.0541999625139 28.8634336005882 81.9768117826471 88.038718788096 -775.818043968658 1285.83500917919
0.0153500000610948 0.0600499968752265 0.00564999974519014 16 -0.17330869158109 0.305248302565111 0.211949263567803 0.410042582085526 29.8144595936072 -16.2534198120081 0.19144713593355 39.7657292815679 -3.25579892116724 3.3175800007499 -51.6237217770689 13.1667039202625 0.950952758795443 9.84912391951256 51.8151689130025 56.0191490935761 76.9412895436072 -52.3746689070447 540.716858479099
0.018150000102818 0.0600499968752265 0.00564999974519014 16 -0.080143451889356 0.366701837396249 0.0431140698824311 0.377825400750603 31.3280818149363 -9.44195077654792 -2.03178085552269 10.7625502242533 -6.84273349106351 3.82114302044299 -51.2782009778487 6.99241881075437 1.21199204333887 3.17127579031138 49.246420122326 20.2045010008012 53.3243729048381 -9.26128371428556 -213.97929723857
0.0209500001445413 0.0600499968752265 0.00564999974519014 16 0.0135295871893566 0.361866858986905 -0.0850503941493419 0.371973443820283 26.2387280537401 -0.999768270390041 -3.86635443672766 -9.68296928304764 -7.65075931036433 3.69972617226415 -29.7356015485018 0.420372280969381 4.02697476293593 -3.27935389129477 25.8692471117741 -8.6832010126576 27.4839969418679 60.6316828858813 -252.097274683619
0.0237500001862645 0.0600499968752265 0.00564999974519014 16 0.0796885029474894 0.312857625162384 -0.127087215989207 0.346960100864849 21.2405159111961 6.29095863342039 -4.58567492808201 -20.4436263224401 -6.66814114148786 3.21262405499417 -11.8226560586528 -5.07455071803928 7.57798496052524 -8.28717477303345 7.23698113057082 -26.7345849558605 28.910018927098 22.594939564811 59.4922525752473
0.0265500002279878 0.0600499968752265 0.00564999974519014 16 0.14391149699688 0.248974978926271 -0.154382521465292 0.326393967519624 17.2426523150857 10.9708071012438 -3.89516094719723 -24.1358034557059 -5.43757647093906 2.61001261952567 -5.08552402407503 -8.58489617399406 8.94609819074011 -11.1949087935197 1.1903630768778 -35.1066105569497 36.8675609709586 66.2560470803873 279.238123848692
0.029350000269711 0.0600499968752265 0.00564999974519014 16 0.184865150849024 0.178478101041401 -0.160062731353488 0.302736906435466 12.8242913122064 13.0751843788944 -2.27016593893832 -23.401276415464 -4.7298577589598 1.99601426828503 -8.16913772645798 -9.92497680120147 6.82294172883367 -11.9209910694865 5.89897178751966 -36.4764607943584 38.8257657788111 -121.446268340604 301.811875619677
0.0321500003114343 0.0600499968752265 0.00564999974519014 16 0.221048405965169 0.117589538478448 -0.208122679853889 0.325583702308456 7.59284827956379 13.6025571262644 -0.616888432544376 -15.8605036299764 -4.41309101915172 1.46385153948105 -8.71789277328972 -10.0424604124155 2.93943339457815 -11.5063119518965 8.10100434074534 -29.4630607562409 32.6510862788525 -162.403319075255 200.904864730549
0.0349500003531575 0.0600499968752265 0.00564999974519014 16 0.230160749355952 0.0894021212914959 -0.215484004092092 0.327719492638252 3.12568608488081 13.6057733092759 0.197487088949201 -10.0754316112777 -4.25426942984545 1.19661098598291 -2.49674041346125 -9.65348363912686 0.658215287398946 -10.8500946251098 2.69422750241045 -23.6812049205536 26.1874565717603 -130.107821741999 135.088215498897
-0.0350500006899238 0.0572499968335032 0.00564999974519014 16 -0.0655482697486878 0.446269075819776 0.225187583069395 0.50414493081724 8.7036906375931 -8.83936879491042 4.37974948118503 -3.84235340288661 -12.036068860189 0.916636903973914 -8.86938385785217 10.3825174279363 -4.26454128522837 9.46588052396234 13.2491333390372 4.99701539202381 17.0326918353395 60.6473752168559 -95.1824533928302
-0.0322500006482005 0.0572499968335032 0.00564999974519014 16 -0.0401846293608348 0.435523088046806 0.198854885124601 0.480456480856083 14.7356704608677 -5.70819629867957 3.39097662077736 -8.45139065403379 -11.6954029016603 0.6134215820195 -19.4691818599995 6.19707630951689 -2.46007985122556 5.58365472749739 22.8601584807768 -2.74319435535423 23.6915419750042 186.755775552377 -165.842980721492
-0.0294500006064773 0.0572499968335032 0.00564999974519014 16 0.0211150785287222 0.39830832614156 0.109977962419701 0.413751763057216 19.5979130002789 0.749907805866617 1.69389987767318 -18.0944331899592 -10.4809257015288 -0.0971114424945081 -29.6581310281759 -1.8947426684255 0.235788013285375 -1.797631225931 31.3520309058491 -18.8443409958258 36.6236331828605 94.6810655036468 -139.63153371979
-0.026650000564754 0.0572499968335032 0.00564999974519014 16 0.0752462450663249 0.333078055231999 0.024770838644666 0.342369073838266 17.0921290673424 8.29277703273746 -0.118339130931555 -25.8521466984817 -8.40090863132264 -0.963496919382378 -28.8476157304947 -9.82457058981458 2.7636709489379 -8.8610736704322 28.7292765995632 -34.1449237312191 45.4946785584622 -18.2541788840063 81.9366019359188
-0.0238500005230308 0.0572499968335032 0.00564999974519014 16 0.121725012461344 0.252683382039152 -0.0583144461170499 0.286472415501732 11.8913660803588 14.7818431420799 -1.43196244497296 -28.2752711306263 -5.91230619429718 -1.74050448093762 -22.1445685961513 -15.8088338579062 4.21112177994039 -14.0683293769686 20.7126061511784 -43.0571142727062 49.808082020146 -246.173199274732 313.608237868999
-0.0210500004813075 0.0572499968335032 0.00564999974519014 16 0.144803080161413 0.174964838172746 -0.104774837641356 0.250116759182227 6.87075176105202 18.5823900783131 -1.94211476027651 -24.9388351728717 -3.75458568653397 -2.03548991787943 -10.9430696454605 -19.3049735498148 4.47527934635522 -17.2694836319354 9.00095488518402 -43.5212252511848 47.6796529048102 -386.104848862429 391.024274629627
-0.0182500004395843 0.0572499968335032 0.00564999974519014 16 0.161948590278626 0.114894638824432 -0.122858780246849 0.233500329352175 3.50489798618485 19.124875849233 -1.69930514963934 -21.8057303110397 -2.14735017078553 -1.72090912360073 -3.77623223292988 -20.2294737500129 3.92978097121132 -18.5085646264122 2.07692708329055 -40.9306061602726 44.968823770327 -369.721540082825 373.610450462045
-0.015450000397861 0.0572499968335032 0.00564999974519014 16 0.165551076332728 0.0556531558527301 -0.126014735201995 0.215369789244736 0.8338090440276 17.103701232082 -1.03167570654466 -21.8340506917105 -0.743934556563002 -1.05645769598713 2.77441978571248 -18.1096870278479 2.75181289386037 -17.0532293318608 -3.80609549225715 -38.9377519237925 42.6784198210292 -354.412260929437 356.800281389345
-0.0126500003561378 0.0572499968335032 0.00564999974519014 16 0.166820083856583 -0.00380652248219121 -0.102613700470732 0.195890279278023 -2.45331724376929 14.0129526615105 -0.425439986846115 -24.038332593034 1.06231080220962 -0.300882654233098 8.38359533674768 -13.0439528702694 1.65659975237845 -12.7430702160363 -8.8090353235938 -38.0512852545445 41.0838806758304 -335.80755403898 331.579507880373
-0.0098500003144145 0.0572499968335032 0.00564999974519014 16 0.150559647878011 -0.0750816972041503 -0.0711330709668497 0.182661935305036 -5.21173976755812 10.9590589904547 0.0256541048212128 -27.860443261905 3.15220571254017 0.314230032707791 10.7301343756995 -6.7412845898542 1.12577993981559 -7.05551462256199 -10.7044802708783 -38.8195022523597 40.8817800441685 -291.797167371382 288.4202253005
-0.00705000027269125 0.0572499968335032 0.00564999974519014 16 0.13559974193573 -0.156571791627211 -0.0361084701873673 0.210251843192072 -9.38943624696692 8.00326212195047 0.503880948834827 -28.5085826042783 4.8381913668419 0.965150396742413 9.69098397921714 -1.4437336226784 0.87499557041672 -2.40888401942081 -9.18710303038231 -36.5118447262287 37.726918634075 -108.569328835244 175.261768683865
-0.004250000230968 0.0572499968335032 0.00564999974519014 16 0.0953269950548807 -0.232591984317017 -0.0165272783348337 0.251911528286972 -14.6521140367542 4.44963827958013 1.07721205792153 -26.6876027260208 5.66082086424995 1.81020891565815 7.56034893020429 1.34600615500776 0.142064347300943 -0.464202760650391 -6.48313687228276 -31.1372410056009 31.8084002324641 -2.82992034005184 23.9491922673224
-0.00145000018924474 0.0572499968335032 0.00564999974519014 16 0.0485248963038127 -0.305386620946228 0.00165242090142176 0.3092222247981 -21.9759230376039 -0.179715924953153 1.64609383999735 -18.9494661372852 5.95382983093596 2.68800835605006 11.4241305256165 2.34479228930026 -1.25465750199283 -0.343216066749795 -9.77803668561914 -18.769750212332 21.1667503818401 32.0672144567329 -139.252199690879
0.0013499998524785 0.0572499968335032 0.00564999974519014 16 -0.0362503015995026 -0.338730227124373 0.0435842654191947 0.343441173020817 -28.8637125022795 -6.29551772640394 2.02194388071638 -3.9382579901964 6.87387263585621 3.19527604130368 23.2214568959308 3.94770857678878 -2.25033535088487 0.752432535485097 -21.1995130152145 2.35725973620754 21.3434341254319 57.8044830403531 -233.280843820872
0.00414999989420176 0.0572499968335032 0.00564999974519014 16 -0.123937362829844 -0.328013412419629 0.134041092010836 0.375393504179073 -27.9116091786322 -14.0420330281182 2.29068446506747 18.8752952574683 8.64139464543395 2.91653178516998 34.2672507972092 8.60516484108219 -1.3651295636159 5.68863305591221 -31.9765663321417 32.9173282855865 46.2429653233845 -36.3827998536961 -53.4340669617166
0.006949999935925 0.0572499968335032 0.00564999974519014 16 -0.201947298049927 -0.233880583558542 0.245408667244386 0.394598850117453 -17.1825011671778 -22.4444069703898 2.47472607878755 48.1910076355454 9.86939755253275 2.24707139303859 31.0755810482763 16.3234706264662 1.07917287446728 14.0763992334276 -28.6008549694888 70.6354146059353 77.4952625449901 -719.901003930023 790.561994957033
0.00974999997764826 0.0572499968335032 0.00564999974519014 16 -0.226348040103912 -0.0591625328952796 0.32137167366726 0.397508985047085 1.40289037157097 -29.1524798360121 2.29592069755399 68.1083758830124 8.12748970484546 2.02088301778443 7.22480076758736 23.9969073816723 2.96307842239788 21.9760243638879 -4.92888007003337 97.2608557190244 99.8344307380167 -1819.29426209699 1960.08678298172
0.0125500000193715 0.0572499968335032 0.00564999974519014 16 -0.196466315984726 0.145861614777629 0.296482572330472 0.384417142799123 17.6946147531837 -30.7966354961934 1.43975274531984 67.4828197561015 2.6317898006965 2.65360266749348 -26.4860678172485 27.0375854567866 2.84616423358989 24.3839827892931 27.9258205625683 98.2794552522949 105.039427813794 -1875.59802301411 2149.05097451929
0.0153500000610948 0.0572499968335032 0.00564999974519014 16 -0.12533544977506 0.316044605233862 0.173620051062123 0.381755274486887 24.521063650807 -25.4972269093173 -0.192000465710942 43.9784310540517 -4.28533653627867 3.69999978823026 -46.6525608101049 22.735632919805 1.6147969941106 19.0356331315747 46.460560344394 69.475657963369 85.7193446409737 -495.123724951369 955.844466657181
0.018150000102818 0.0572499968335032 0.00564999974519014 16 -0.0527286950747172 0.388913035030807 0.0252598565217947 0.393283262360169 23.2553650071961 -14.4016038372637 -2.13929089589835 12.5476833769394 -9.08752660481649 4.25230091846434 -43.6405321307613 12.1848981422562 1.77602680143296 7.93259722379188 41.501241234863 26.9492872142031 50.1152991021984 -40.3627311457903 -150.638169057723
0.0209500001445413 0.0572499968335032 0.00564999974519014 16 0.0148455774784089 0.384422785410813 -0.0846840448480543 0.393919606728965 18.2689629226817 -1.17318273385116 -3.73824600413927 -10.3211478641082 -9.96513923667512 4.01612690455578 -22.7194702083766 -0.278219868361381 4.43900530282498 -4.29434677291716 18.9812242042374 -9.14796513025708 21.5038032106414 98.6343965526288 -241.114236749885
0.0237500001862645 0.0572499968335032 0.00564999974519014 16 0.0603250062465668 0.331763257840648 -0.111538256184819 0.355171434978151 15.4783549762585 10.1285010308747 -4.40828316884102 -21.9520058900244 -8.14612047765572 3.35362866095031 -6.87828802064094 -10.4070782468289 7.83201908398352 -13.7607069077792 2.47000485179992 -32.0805069208992 34.9945267559311 51.0018677832172 158.258604949142
0.0265500002279878 0.0572499968335032 0.00564999974519014 16 0.11095906774203 0.263462389681178 -0.127226529164497 0.312907231002963 14.1902356467112 17.3831291449124 -3.81503424998145 -25.1967360162192 -5.98699657307435 2.61517550001252 -3.1601768895539 -16.106678267377 8.97635031791147 -18.7218537673895 -0.654857360427556 -42.5798651611316 46.5186152393875 -286.615546430572 456.741979000551
0.029350000269711 0.0572499968335032 0.00564999974519014 16 0.147345393101374 0.191582782322851 -0.133115047723792 0.275924343400997 11.827696937856 20.7306810950871 -2.26813570453946 -23.7062234046244 -4.85702326072708 1.9018590334094 -7.96731657655584 -17.7871530093978 6.53687531815834 -19.6890120428072 5.69918087201638 -44.4369044997115 48.9364520511065 -375.101485592279 495.322885366024
0.0321500003114343 0.0572499968335032 0.00564999974519014 16 0.182636171976725 0.129673058964157 -0.178676063574579 0.286524360622165 7.51760730345823 21.6267255297531 -0.598942523855671 -15.9018089390664 -4.61635987574612 1.27541258580859 -9.15018855092647 -17.5175171779252 2.35216312658396 -18.7929297637338 8.55124602707079 -37.5285344688195 42.833268811725 -300.654557127644 332.88590871142
0.0349500003531575 0.0572499968335032 0.00564999974519014 16 0.192327932516734 0.100736816191735 -0.190540061674352 0.288865807712638 3.27634407972302 21.6506751132407 0.253295528047242 -10.1022751424903 -4.61904725268737 0.944104298173126 -3.67025618685885 -16.8237084002521 -0.129480142363234 -17.7678126984252 3.92355171490609 -31.752950255731 36.5969845217989 -210.766700295616 220.574337183117
-0.0350500006899238 0.05444999679178 0.00564999974519014 16 -0.0251132190227508 0.484651224192542 0.165893808465141 0.512872536375349 4.7214700949919 -18.6681137412728 3.30964724021588 -3.78242645812147 -6.44407955910906 0.340865300799357 -4.16643625889501 27.7440991980785 -3.37302748424517 27.4032338972792 7.47608349911089 14.8856872831514 32.0688749164426 34.3872953643131 -90.8934536519783
-0.0322500006482005 0.05444999679178 0.00564999974519014 16 -0.0118009289105734 0.474411171602756 0.15555633304563 0.499402637573387 7.68794654869355 -13.4241554777958 2.50565035171547 -9.15393077102091 -6.10218104890564 0.165647953830111 -9.83367644464048 20.7263857014865 -2.16102987251121 20.5607377476564 12.3393267963559 4.27022470677494 24.3564722725095 158.718256285657 -152.017446793016
-0.0294500006064773 0.05444999679178 0.00564999974519014 16 0.0180587307612101 0.431948396468263 0.112850055332916 0.446811671688254 9.71613280661608 -2.95275547650512 1.09606092670328 -19.559967877711 -5.14858344429824 -0.360045143744712 -17.4609877605658 6.98555599645985 -0.283077816443293 7.34560114020456 18.5570486872691 -16.6072124012059 25.9638482477351 75.9438884948248 -87.4196727430214
-0.026650000564754 0.05444999679178 0.00564999974519014 16 0.0430956474939983 0.361827296963505 0.0561964246475448 0.3686926440872 7.43909117043426 9.03919338719495 -0.366878042828143 -27.8743824351995 -3.7408300900347 -1.05979145480466 -18.6259107866813 -7.50346429357454 1.40864894438809 -6.44367283876989 18.2590327438532 -36.9135758223944 41.6836331956545 -186.095088817604 214.557563819431
-0.0238500005230308 0.05444999679178 0.00564999974519014 16 0.0608763404687245 0.271016428197424 0.00471856189387232 0.277809463496296 4.95540682115472 19.1391244339648 -1.32950628412647 -30.2617723542204 -2.22069556674826 -1.71362160959962 -15.0649969289333 -18.8204776365143 2.32275473774784 -17.1068560269147 13.7354906448068 -49.4008967881851 54.0532776976206 -530.476464580503 522.251254974831
-0.0210500004813075 0.05444999679178 0.00564999974519014 16 0.0732932480176289 0.186880520955698 -0.032653334204418 0.203377652539094 3.84044033030013 25.3048481876875 -1.57648347452556 -26.3945871845846 -0.936162839204485 -1.96408586470622 -7.84082993021154 -25.5061493270727 2.47827258564298 -23.5420634623665 6.26434645568598 -51.6994353722721 57.1515739625314 -602.219753606592 609.056129278535
-0.0182500004395843 0.05444999679178 0.00564999974519014 16 0.0856998026371003 0.119664909164809 -0.0423856524284929 0.15316882903923 4.16213711878264 27.1354347149218 -1.24340344673715 -23.0744464568797 0.181069802600029 -1.72209703387752 -3.92630674531614 -27.5338143297374 2.19483028975697 -25.8117172958598 2.68290329857899 -50.2098811718015 56.5196858373907 -563.834485316629 584.123491537194
-0.015450000397861 0.05444999679178 0.00564999974519014 16 0.100057672262192 0.0559779159670385 -0.0579296699656212 0.128455873812243 3.58168172324318 25.7514975202593 -0.628473121355008 -23.3821434315413 1.59446307404835 -1.21810648191807 -1.74010912657777 -24.9889976272258 1.45894075894261 -23.7708911453078 1.11163600522276 -49.1336409518006 54.5930918123405 -563.37033702208 583.854884664708
-0.0126500003561378 0.05444999679178 0.00564999974519014 16 0.109580421447754 -0.0113962804243602 -0.0587014614769578 0.124834312397308 0.715532095877296 22.9255240719687 -0.094707716796465 -26.3243652258155 3.62234308788804 -0.631625684130295 1.4819220957395 -18.6385296315059 0.714669318515377 -18.0069039473756 -1.57662981253596 -49.2498892977842 52.4622335321304 -579.489119399614 597.559693135254
-0.0098500003144145 0.05444999679178 0.00564999974519014 16 0.107067198753357 -0.0924446266128992 -0.0556761425935353 0.15201719275327 -1.91273665723761 19.5115652930574 0.295370883740994 -29.6454921553996 5.60352970383362 -0.0342679874048058 3.47604919989638 -10.7854394951098 0.499632117957937 -10.751171507705 -3.18067831615539 -49.1570574484571 50.4194476400709 -541.83355369184 568.1595988784
-0.00705000027269125 0.05444999679178 0.00564999974519014 16 0.100066992441813 -0.179601832210562 -0.0418163711884214 0.209806649106048 -5.38329747244769 15.1622202767219 0.599599753751927 -29.1756506063808 6.3696609451291 0.785327632572478 5.11881299374018 -4.25673430100547 0.885260008241616 -5.04206193357795 -4.51921323998825 -44.3378708831027 44.8518948462293 -401.430641354982 409.224741740864
-0.004250000230968 0.05444999679178 0.00564999974519014 16 0.0752411301930744 -0.258693163010369 -0.0239533814172804 0.270475774779115 -8.90226298243219 8.95985429025102 0.871917148920557 -25.8880915046429 5.41458822844572 1.87537420281548 5.65375598583806 -0.56771014884844 1.25486643722787 -2.44308435166392 -4.7818388369175 -34.8479457948939 35.2592394974064 -131.271010355056 175.509935558298
-0.00145000018924474 0.05444999679178 0.00564999974519014 16 0.0477521053949992 -0.32720288170715 -0.00558530983747915 0.330716169929895 -14.6637196640613 0.527154066919649 1.17408561411656 -18.3407538633445 3.71335576644114 2.90646270635979 10.1079679832091 1.65625920363265 0.993859307805807 -1.25020350272714 -8.93388236909257 -18.8679079302642 20.9135174623481 16.9161557034546 -72.3478014705544
0.0013499998524785 0.05444999679178 0.00564999974519014 16 -0.00887861410776769 -0.363267397565942 0.0367426731051334 0.36522877207268 -19.2332982752773 -10.2996617321744 1.51155076087759 -5.01316292685045 3.25950562423427 3.32642726567199 18.5960772595226 5.99488509495979 0.602712558123899 2.6684578292878 -17.084526498645 5.28649880532394 18.0817250971328 23.762372171606 -172.002995652744
0.00414999989420176 0.05444999679178 0.00564999974519014 16 -0.0621700704097747 -0.356847661168625 0.105929226338145 0.377394186400469 -16.8939441586017 -23.2012256774928 1.92274879459986 16.4762736394597 4.96591016931923 2.80650213073012 24.6670948454053 15.5629644188786 1.18637608881687 12.7564622881484 -22.7443460508054 39.6774993169524 47.4798542482441 -110.499653253182 193.118679942294
0.006949999935925 0.05444999679178 0.00564999974519014 16 -0.10722230831782 -0.271135719299782 0.188665220450299 0.347283410327606 -6.85663247937062 -36.1423854430587 2.12495589034609 46.7639004072914 7.56403610848305 1.93305720138486 19.2813683641701 29.2390272694047 2.77804865969414 27.3059700680198 -17.156412473824 82.9062858503501 88.9573533994101 -1548.67717487181 1542.76752988431
0.00974999997764826 0.05444999679178 0.00564999974519014 16 -0.105090516408284 -0.0909399190420906 0.226168912020124 0.265455198251435 6.95395469947014 -45.3112455931427 1.77217547225407 70.7828330711158 8.05859399632089 1.74174558378486 -0.589938127916347 41.1745420938086 3.93042192562419 39.4327965100237 2.36211360017041 116.094078664259 122.63099168711 -3096.82364070325 3251.63297823321
0.0125500000193715 0.05444999679178 0.00564999974519014 16 -0.0708386933803558 0.134909451735827 0.184865153309462 0.239570043109794 14.7009534965526 -46.2244930042295 0.792191893120596 73.6956106391774 4.66704582929056 2.68949506113268 -24.5134359993364 43.9759710962858 3.53602767552703 41.2864760351532 25.305627892457 119.920103643407 129.328183951829 -3433.35074624916 3444.78423197076
0.0153500000610948 0.05444999679178 0.00564999974519014 16 -0.022517776886622 0.33416742574734 0.0745139894283299 0.343114052943106 13.0303295131925 -37.0395061968601 -0.611276676018448 50.4686134540009 -1.11880111675942 4.10609168979143 -35.0019227911523 34.6546537964027 2.28728325908059 30.5485621066113 34.3906461151339 87.508119650861 98.8615303939165 -1693.078270055 1718.30816807249
0.018150000102818 0.05444999679178 0.00564999974519014 16 0.00379885991414386 0.426485646703125 -0.0254277422671051 0.427259883744347 6.82311221132767 -20.2121423354307 -2.00388577574662 15.6332835740621 -5.89239364529351 4.83350156578629 -27.0092042187946 16.9234226430322 2.25894260272178 12.0899210772459 25.005318443048 35.8454259094928 45.3467385897289 -201.133596834582 141.957379562063
0.0209500001445413 0.05444999679178 0.00564999974519014 16 0.0169318993886312 0.422622002131927 -0.0781461669326139 0.430119598843351 2.47150485579343 -1.21085257608651 -3.13406559802565 -11.1292160661885 -7.29231300847723 4.47901598508936 -8.27541722578579 -1.68884024090767 4.45957618455776 -6.16785622599703 5.14135162776014 -9.91836349010201 12.7612648787897 67.5647707184943 -71.3689461833718
0.0237500001862645 0.05444999679178 0.00564999974519014 16 0.0174767223993937 0.359147451060708 -0.0620591534171641 0.36488856648583 4.15562346653232 14.6076532358021 -3.72047879111906 -24.3965768127964 -5.85869264264441 3.52809721934326 2.5326730897651 -15.414995955437 7.31074696907511 -18.9430931747803 -6.25315188088416 -39.0042300485984 43.8095040962324 -383.173150021686 383.387866657452