TITLE="DynamicStudio Exported Data"
VARIABLES= "X (m)[m]" "Y (m)[m]" "Z (m)[m]" "Status[-]" "U[m/s]" "V[m/s]" "W[m/s]" "Length[m/s]" "dU/dX[1/s]" "dU/dY[1/s]" "dU/dZ[1/s]" "dV/dX[1/s]" "dV/dY[1/s]" "dV/dZ[1/s]" "dW/dX[1/s]" "dW/dY[1/s]" "dW/dZ[1/s]" "Vorticity X[1/s]" "Vorticity Y[1/s]" "Vorticity Z[1/s]" "Vorticity Magnitude[1/s]" "Lambda-2[1/s²]" "Q-Criterion[1/s²]"
ZONE T="DynamicStudio Data" I=26 J=26 F=POINT
-0.0350500006899238 0.0600499968752265 0.00564999974519014 16 -0.0594780550400416 -0.365875611722392 0.104389650889207 0.385097132548856 -7.52642001562543 -1.54653943781056 -2.0204160593601 -0.0350574927764433 2.46152203477596 -0.373919115882448 7.09074751231458 -5.47985432815111 8.82074914595844 -5.10593521226866 -9.11116357167469 1.51148194503412 10.5531253044708 43.8399950678243 -50.9796231843537
-0.0322500006482005 0.0600499968752265 0.00564999974519014 16 -0.0825470385948817 -0.364045286659772 0.12670009934033 0.394202865911487 -15.4222261878232 -3.94980518973116 -1.84942859588304 2.58934582812271 3.80080362248565 -0.664564513771867 14.3367139333979 -2.66782031697135 7.81952225841601 -2.00325580319949 -16.1861425292809 6.53915101785387 17.5717028151955 60.8411662362501 -114.521623988017
-0.0294500006064773 0.0600499968752265 0.00564999974519014 16 -0.15281946738561 -0.34858199579583 0.189942904639368 0.425372195174844 -22.7932342691458 -8.77142843566245 -1.78867381889516 15.0450065623652 5.78411934316971 -1.66494449134213 27.0223094626203 3.68090789739888 6.32747051688521 5.34585238874101 -28.8109832815155 23.8164349980276 37.7607398156504 45.3899215908544 -53.0346572773491
-0.026650000564754 0.0600499968752265 0.00564999974519014 16 -0.220895504156748 -0.278576595376168 0.291013606227934 0.459443861922029 -23.4624543333177 -13.9582392882333 -1.88148729656098 39.4994162746294 6.727002518202 -3.16344353625942 33.3924465048425 12.4129475883715 5.47113990847833 15.576391124631 -35.2739338014035 53.4576555628627 65.9135441663619 -53.6385226852178 404.043439125606
-0.0238500005230308 0.0600499968752265 0.00564999974519014 16 -0.293157459894816 -0.130069502538148 0.393506253374896 0.507648050550428 -18.5624625310455 -16.9434819743181 -1.84454733033819 60.9998656175173 4.90224602704278 -4.49245491110039 27.4485015221054 20.4537389072568 4.88544324141039 24.9461938183572 -29.2930488524436 77.9433475918354 86.9227285059343 -861.28737772822 1018.33371294425
-0.0210500004813075 0.0600499968752265 0.00564999974519014 16 -0.327014797131221 0.0545674102463575 0.456042898230565 0.563818592128976 -3.94129116502828 -15.9109487296121 -1.1560023841337 68.2601687588935 0.417122015019303 -4.73294752211629 5.49646199108488 24.4210706372251 3.76564209117662 29.1540181593414 -6.65246437521858 84.1711174885056 89.3251872450463 -1190.6326299215 1193.10685532307
-0.0182500004395843 0.0600499968752265 0.00564999974519014 16 -0.306911825736364 0.243285677487729 0.423858820674553 0.577095390304856 13.4872323503974 -11.06950722342 0.0789462562180829 53.5314284289576 -4.51103268020476 -3.55068775005514 -21.4216774241257 22.4353969868152 2.08129277522852 25.9860847368704 21.5006236803438 64.6009356523776 72.8754712215173 -584.488873473866 631.759537782014
-0.015450000397861 0.0600499968752265 0.00564999974519014 16 -0.2375062028567 0.349148667676297 0.323399799509595 0.531884779682956 30.7926412281686 -4.4960051223285 1.04521148359768 27.3077558672477 -7.44423440208093 -1.74804086664566 -46.7477430294775 15.2490130599967 0.650708648053538 16.9970539266424 47.7929545130752 31.8037609895762 59.871074454666 -19.8632638108509 -15.7416428116477
-0.0126500003561378 0.0600499968752265 0.00564999974519014 16 -0.120648002624512 0.396827721884498 0.14310822129366 0.438757500671111 38.4709056351707 1.25253928348422 1.15496257875584 2.44683097215588 -7.61037509472571 -0.289883727326165 -59.0178060828282 5.75083118996793 0.26869774680191 6.0407149172941 60.1727686615841 1.19429168867166 60.4870123063634 55.8175663822629 -217.720189122282
-0.0098500003144145 0.0600499968752265 0.00564999974519014 16 -0.0140842127799987 0.366681596012786 -0.0249216696391037 0.367797291346357 36.6848846407918 4.46065143199642 0.300124566964714 -16.1032041269864 -6.04726951140782 0.258201429558289 -56.2188787371489 -2.62373434639411 0.90559443933747 -2.8819357759524 56.5190033041136 -20.5638555589828 60.2127515046259 21.5194336493386 -104.717231378021
-0.00705000027269125 0.0600499968752265 0.00564999974519014 16 0.0857436831792195 0.310391636576581 -0.183140309363177 0.370452858236331 30.8899590074856 5.57886911964872 -0.733352004014984 -26.7832607195193 -4.13141321770065 0.123835750219983 -40.9169904441101 -8.14186227095057 1.77832146732265 -8.26569802117055 40.1836384400951 -32.362129839168 52.2527894928935 1.76376792482243 40.388114308241
-0.004250000230968 0.0600499968752265 0.00564999974519014 16 0.15858060836792 0.219427657988223 -0.260600222476448 0.375777570372834 22.6630994107258 6.21055368363269 -1.25105238414561 -32.7990413677859 -2.57889512072808 -0.13861652320467 -19.7016007468572 -10.9262232319934 2.15105022785392 -10.7876067087887 18.4505483627116 -39.0095950514186 44.4808239521698 34.6945478852927 162.294293247674
-0.00145000018924474 0.0600499968752265 0.00564999974519014 16 0.213813027540843 0.128828301514344 -0.296446382581489 0.387547674180742 16.9583529387573 7.67628587578827 -1.11863343004341 -32.8986959069836 -1.41713109138247 -0.148852329159702 -7.32048769537971 -12.3553100144883 1.51989442195209 -12.2064576853286 6.2018542653363 -40.5749817827718 42.8227714215749 -52.550711110169 242.100542977206
0.0013499998524785 0.0600499968752265 0.00564999974519014 16 0.25869343996048 0.0375421578415747 -0.306491856803186 0.402826225289085 11.7236340080803 10.1812929171841 -0.600834430245043 -30.5808168038228 -0.500626810329994 0.044647573311683 -4.26638351127246 -13.8463398801662 -0.169510392984016 -13.8909874534778 3.66554908102741 -40.7621097210069 43.2197335878589 -215.414224595439 301.635487035666
0.00414999989420176 0.0600499968752265 0.00564999974519014 16 0.285673654079437 -0.0404939932362565 -0.32711875336982 0.4361833088617 6.91191073082496 12.8713092016577 -0.213371970955706 -26.8249506569455 0.391217255907543 0.20774978700678 -7.97002372040328 -15.8621730479583 -2.45423435804088 -16.0699228349651 7.75665174944757 -39.6962598586032 43.5224208086555 -337.345664300257 331.64748875013
0.006949999935925 0.0600499968752265 0.00564999974519014 16 0.302302984793981 -0.110629597284521 -0.359808255331591 0.482791863037736 -0.486967622600153 14.8446137859683 -0.0276996025620317 -26.1436262254391 1.24230121859269 0.11784092751261 -6.33388623330415 -18.4098140084677 -4.9556631315581 -18.5276549359803 6.30618663074212 -40.9882400114073 45.4211163059786 -389.029267159922 385.737878383452
0.00974999997764826 0.0600499968752265 0.00564999974519014 16 0.285526736577352 -0.186288042521725 -0.372054173689491 0.504631608450024 -13.8109515023712 15.1015882569173 -0.164463900772062 -25.5353405896113 1.9603627237376 -0.264654963812979 5.44109525312698 -20.4911837000431 -6.94115657553032 -20.2265287362302 -5.60555915389905 -40.6369288465286 45.7372358612021 -310.421348116349 436.278287573762
0.0125500000193715 0.0600499968752265 0.00564999974519014 16 0.222368017435074 -0.253446263836381 -0.33433487156018 0.474828758787616 -30.8381283386985 12.4848498033755 -0.843833551718697 -23.6378449290363 2.42408792604 -0.747492038208883 27.0221589942037 -19.9939456108129 -7.16998675290795 -19.246453572604 -27.8659925459224 -36.1226947324117 49.5155388784451 121.189216429402 431.945791645062
0.0153500000610948 0.0600499968752265 0.00564999974519014 16 0.10287527124087 -0.319499033345686 -0.213857959156157 0.397992688922984 -48.1729589517241 6.51811218554041 -2.203251033831 -15.2500296481783 2.58813439737208 -1.05059688403489 53.8545963010766 -15.0503329563466 -4.42915470548595 -13.9997360723117 -56.0578473349076 -21.7681418337187 61.7440430876622 25.3537414154439 279.468914236426
0.018150000102818 0.0600499968752265 0.00564999974519014 16 -0.0647712947924932 -0.33903393545188 -0.0100871221761918 0.345313017494104 -55.2435100282765 -2.1344107922893 -3.84558210006979 -0.102816971533172 2.77305043313331 -0.923920591247257 70.298079894106 -5.85738669698648 0.636147432141681 -4.93346610573923 -74.1436619941757 2.03159382075612 74.3353823907269 15.4157967775988 78.1338363296743
0.0209500001445413 0.0600499968752265 0.00564999974519014 16 -0.227278065284093 -0.318965676041553 0.210518131641826 0.444648518722249 -46.3312906360646 -11.4521663466885 -4.82800086004297 21.1368009751336 3.24411321894911 -0.459293848343231 62.9528099932851 4.59831788472828 5.24593114102185 5.05761173307151 -67.780810853328 32.5889673218221 75.3781038994742 15.1511105694976 171.774042516351
0.0237500001862645 0.0600499968752265 0.00564999974519014 16 -0.341412232716878 -0.218243452632645 0.367014084846402 0.546710028937995 -21.2103892485329 -19.0408163364985 -4.49256750727652 43.5949141869436 3.48928290978706 -0.0879919699988814 26.9145283974225 12.6616235386632 6.62913579616834 12.7496155086621 -31.407095904699 62.6357305234421 71.2193309923011 -482.507311725233 760.627542096765
0.0265500002279878 0.0600499968752265 0.00564999974519014 16 -0.355544431805611 -0.0747293680881558 0.370679622337351 0.519037285615389 6.7392851724728 -23.2679736363787 -3.10173798756717 60.3532809229329 2.28785836826551 -0.27000283673903 -15.5351687856602 16.4560757655126 4.4718430010569 16.7260786022516 12.433430798093 83.6212545593116 86.1792673494783 -1317.52378695264 1416.34221199645
0.029350000269711 0.0600499968752265 0.00564999974519014 16 -0.304720129569372 0.114770257618511 0.276310502441678 0.427052763904141 22.5830214231582 -23.7455027808351 -1.60338510809123 62.5530371997554 -0.739153003832942 -0.906035171049391 -39.1192491270643 16.5586508714827 0.860005510251685 17.4646860425321 37.5158640189731 86.2985399805905 95.707331560523 -749.144510340134 1439.7263564464
0.0321500003114343 0.0600499968752265 0.00564999974519014 16 -0.22439963499705 0.267256198012425 0.143044237157252 0.377150799212684 20.1964252590246 -21.9980868352123 -0.623405916521805 43.0746158683879 -4.18696080130487 -1.62116530839243 -32.8854276188475 15.3088167845404 -2.03898073485454 16.9299820929329 32.2620217023257 65.0727027036002 74.5782741496443 -483.031591942888 834.671662314256
0.0349500003531575 0.0600499968752265 0.00564999974519014 16 -0.18629487713178 0.34927027373109 0.0868003334881117 0.405252764643726 12.7552988186438 -20.4542218798487 -0.307421011102999 29.6814707776704 -5.9594545155161 -1.95475394634791 -19.7510876258317 14.5053524319702 -3.13898702707918 16.4601063783181 19.4436666147287 50.1356926575191 56.2368113575039 -479.337686374203 532.047194340869
-0.0350500006899238 0.0572499968335032 0.00564999974519014 16 -0.0577215838432312 -0.370595682910158 0.124422324995588 0.395163075691955 -5.23745239491512 -4.62978608984877 -2.07055864342499 -1.33990653468792 4.89135198055983 -0.342536920385598 4.43671407475791 -5.57019644712922 10.1158109168739 -5.22765952674362 -6.5072727181829 3.28987955516085 8.97197469032466 28.1301210335526 -28.0443113918685
-0.0322500006482005 0.0572499968335032 0.00564999974519014 16 -0.0735308055082957 -0.374649559190972 0.136898091589101 0.405598519525684 -11.8145582501337 -8.19935465046825 -1.95393411280669 1.24125399063991 6.22796630277656 -0.708566844653233 10.3749094431098 -1.66105881471548 9.14995389351118 -0.95249197006225 -12.3288435559165 9.44060864110816 15.5574006792222 92.692163011694 -95.42532944859
-0.0294500006064773 0.0572499968335032 0.00564999974519014 16 -0.129066930214564 -0.364871303899563 0.184602618187976 0.428797700001101 -17.461162577888 -15.5318865307719 -1.97626671336832 13.7030482143942 8.25691124800231 -1.88429548825572 19.6650740480221 7.54173835204736 7.67161115271231 9.42603384030308 -21.6413407613905 29.2349347451661 37.5749804186679 50.6195018756429 51.1217779517853
-0.026650000564754 0.0572499968335032 0.00564999974519014 16 -0.180144995053609 -0.300845683962871 0.255104900773925 0.433634471877901 -18.8490507710334 -23.748424833457 -2.07162854678274 39.5838705138209 9.20012096510428 -3.70762287906637 24.7960256104612 20.584714764036 6.60690527380664 24.2923376431023 -26.8676541572439 63.3322953472779 72.9586742069412 -767.197619730863 830.579975042069
-0.0238500005230308 0.0572499968335032 0.00564999974519014 16 -0.243214915593465 -0.147074420447267 0.336019110177391 0.440105922161293 -17.0161854955838 -28.9130245358413 -1.90428667303348 63.3677335900472 7.35605091710254 -5.44818906872324 21.0681410853135 32.8812323222475 5.67604593446795 38.3294213909707 -22.972427758347 92.2807581258884 102.531045549959 -1901.59474867712 1871.41249234728
-0.0210500004813075 0.0572499968335032 0.00564999974519014 16 -0.27868732492129 0.0515474681514024 0.382071266622903 0.475712328328197 -6.70404445501669 -28.0407260295498 -1.00487430989573 72.0251222856902 2.7182707551171 -6.00904348107644 4.5900648634559 38.8455459766789 4.16096860500421 44.8545894577553 -5.59493917335163 100.06584831524 109.801691875972 -2225.69252141547 2222.86564712491
-0.0182500004395843 0.0572499968335032 0.00564999974519014 16 -0.27527663230896 0.256409148740737 0.359222647923355 0.52015746330739 7.71896050059262 -21.123514725154 0.432452278065205 57.0872120513796 -2.95974816236022 -4.90855117623522 -16.2898907490571 35.2820476460426 2.19666907676909 40.1905988222778 16.7223430271223 78.2107267765336 89.5088753863192 -1394.7359740771 1373.71913663835
-0.015450000397861 0.0572499968335032 0.00564999974519014 16 -0.223930825789769 0.371531196941311 0.277040455838044 0.514715318608727 24.3628433335255 -11.1166123477366 1.5202572076623 29.1028575952723 -7.33289960551475 -2.89552825779794 -37.8028300357312 23.6008092861672 0.735612649425588 26.4963375439651 39.3230872433935 40.2194699430089 62.1768996982953 -37.6084735439786 283.209178880578
-0.0126500003561378 0.0572499968335032 0.00564999974519014 16 -0.1268539083004 0.41846677810594 0.129772031762792 0.456121846283748 33.6910452463003 -1.82313553282723 1.61106176934618 2.40218892579818 -9.02797905630005 -1.06940678835564 -49.748740366209 8.55289119914458 0.513142368139531 9.62229798750022 51.3598021355552 4.22532445862542 52.4239569352056 69.1936669094054 -197.83205710539
-0.0098500003144145 0.0572499968335032 0.00564999974519014 16 -0.0268683592478434 0.383532048664056 -0.0165045646640162 0.384826118832737 34.1879019652478 4.38433681541653 0.648267184968778 -17.3161248545919 -8.29145147677611 -0.188249297293114 -49.3631792889816 -4.7803521201879 1.37689309670347 -4.59210282289479 50.0114464739504 -21.7004616700084 54.7096172847548 38.9158767536652 -140.790331279256
-0.00705000027269125 0.0572499968335032 0.00564999974519014 16 0.0694993829727173 0.320983721754746 -0.156386038885297 0.363754459798571 29.525378474144 7.87316079508475 -0.549918511404677 -28.1897626194457 -6.31064761381323 -0.151975006244847 -36.8744453440033 -13.8392206936098 2.48287707278711 -13.6872456873649 36.3245268325987 -36.0629234145305 52.9843976026977 12.3275844227246 70.8764419236322
-0.004250000230968 0.0572499968335032 0.00564999974519014 16 0.142347788016001 0.226397635891723 -0.228600410730578 0.351819456648717 21.2682609425886 10.4220182752356 -1.24235055553818 -34.0136809075944 -4.20701220640252 -0.432235034236866 -18.0189791156365 -18.6362671045896 3.00917045328475 -18.2040320703527 16.7766285600984 -44.43569918283 50.8662305594674 -6.5943619249144 285.914439961088
-0.00145000018924474 0.0572499968335032 0.00564999974519014 16 0.192708055178324 0.13183052521199 -0.260538725710746 0.349851553524149 14.6822101954006 13.6044220893443 -1.21978258759108 -33.8794634610544 -2.39885978897171 -0.56044045338231 -6.15898685530236 -21.0040273150559 2.36333565081195 -20.4435868616736 4.93920426771128 -47.4838855503987 51.9331817774757 -356.400032584412 435.435505846049
0.0013499998524785 0.0572499968335032 0.00564999974519014 16 0.229898265600204 0.0386118591609799 -0.26709234654074 0.354517150183863 8.94558153843792 17.8236149552115 -0.698436014590404 -31.4295354847498 -0.874874980991352 -0.461663441068947 -2.61760118515978 -23.31730052602 0.515516077411626 -22.855637084951 1.91916517056938 -49.2531504399613 54.3317234198619 -538.117290013248 543.929280072543
0.00414999989420176 0.0572499968335032 0.00564999974519014 16 0.248867398103078 -0.0422567387557744 -0.282499553052088 0.378849061346995 4.45651528954494 22.1603907713094 -0.141967316481808 -27.7610555537773 0.612667241354883 -0.31457729494985 -5.38947332613449 -26.8746888571374 -2.01229762830771 -26.5601115621876 5.24750600965268 -49.9214463250867 56.7901985267326 -608.149934703174 598.506200251187
0.006949999935925 0.0572499968335032 0.00564999974519014 16 0.260215315818787 -0.1149029400091 -0.308314533911277 0.419490819959547 -1.76607046660392 25.237120861823 0.287238309048461 -26.9661288543668 2.08758011288592 -0.29646564828332 -3.47025925995339 -31.4696525712538 -4.75838134187689 -31.1731869229705 3.75749756900185 -52.2032497161897 60.9185164941365 -666.89522533331 666.997894438008
0.00974999997764826 0.0572499968335032 0.00564999974519014 16 0.241643669605255 -0.191689414888097 -0.313095421469382 0.439505674349632 -12.8213285967604 25.4409426432329 0.358953374810139 -26.1828351704573 3.31822348761129 -0.435423192654388 6.65634775311389 -34.8547421473997 -7.09116645349998 -34.4193189547453 -6.29739437830376 -51.6237778136902 62.3647426758231 -603.684089242376 673.394192675899
0.0125500000193715 0.0572499968335032 0.00564999974519014 16 0.185866008996963 -0.260739441678937 -0.276031007991793 0.422758024312335 -26.7345200492572 21.2199575993614 -0.210138389459025 -23.7386670985572 3.91196517054411 -0.586584520864038 24.4098652290217 -33.6234469119481 -7.86571743781288 -33.036862391084 -24.6200036184807 -44.9586246979187 60.9824301709085 201.80289859989 564.071222167264
0.0153500000610948 0.0572499968335032 0.00564999974519014 16 0.0834523491064707 -0.325314902803705 -0.169898362541183 0.376376851243203 -41.2314692990925 12.1637721965668 -1.64137519224138 -15.104788392724 3.81286392750009 -0.563438233067569 46.6862954256688 -25.4907231561804 -5.61404779289945 -24.9272849231129 -48.3276706179102 -27.2685605892909 60.831798244036 49.9937391173421 298.858341132481
0.018150000102818 0.0572499968335032 0.00564999974519014 16 -0.0589728776613871 -0.346227705840623 0.00531083384127366 0.351254365876661 -46.5018744673004 -0.635178691097599 -3.54355767942986 -0.203191726556667 3.70635874848221 -0.250483342175865 59.9370112606832 -11.0256690671366 -0.547173998664127 -10.7751857249607 -63.480568940113 0.431986964540932 64.3900137684826 16.3877144954073 60.5634112503489
0.0209500001445413 0.0572499968335032 0.00564999974519014 16 -0.192914279699326 -0.326227062573501 0.194008491207987 0.425769080991145 -38.1601158372023 -14.4420705328029 -4.90913133671471 20.4318426490002 4.35467090103384 0.177256886095048 53.0702681287622 5.73270657023741 4.65816406545242 5.55544968414236 -57.979399465477 34.8739131818031 67.8871387243735 0.069644692412402 230.944812420577
0.0237500001862645 0.0572499968335032 0.00564999974519014 16 -0.286477466821671 -0.229388470193371 0.328693946225879 0.492674455944042 -15.138654238474 -26.1554303451208 -4.85823170714942 43.3098674188999 5.26295276493159 0.303930613552674 20.2467520601559 19.5952562207151 6.67899456400872 19.2913256071625 -25.1049837673053 69.4652977640208 76.3403107609754 -1093.47690479768 1079.56225647173
0.0265500002279878 0.0572499968335032 0.00564999974519014 16 -0.286538467009862 -0.0814684677387898 0.321363183216866 0.438195960546586 9.65119122914259 -33.7300189785562 -3.41742870050811 61.9039996379549 4.39775566512703 -0.174761218588562 -17.9359319524016 27.3989783157733 4.52927968539199 27.5737395343619 14.5185032518935 95.6340186165111 100.583117695403 -2086.50622955868 2137.59178352335
0.029350000269711 0.0572499968335032 0.00564999974519014 16 -0.237242014010747 0.115644080693213 0.229435002296426 0.349710947626772 22.7136017178834 -36.6133289484656 -1.5825332882268 65.950330885398 0.458747055161884 -1.01487276153091 -38.4843732328152 29.1306738862756 0.23769864309143 30.1455466478065 36.9018399445884 102.563659833864 113.092016042281 -1938.77986108349 2399.25011846277
0.0321500003114343 0.0572499968335032 0.00564999974519014 16 -0.162051409085592 0.2812030416502 0.0986532472002242 0.339217147271623 19.2802591421641 -36.4102151082045 -0.19892351848922 46.2600092126785 -4.97467070894727 -1.81773282320065 -31.6164623940745 27.6434441295676 -3.55447040235762 29.4611769527683 31.4175388755853 82.670224320883 93.2168905601681 -1429.6418212418 1581.53429305055
0.0349500003531575 0.0572499968335032 0.00564999974519014 16 -0.131198688348134 0.366536547207894 0.044288812794451 0.391820922363901 11.4543105468812 -35.5750078858777 0.325605185610651 31.6444041062909 -8.2235439247076 -2.19018550023698 -18.4937077150657 26.2231737187295 -5.16707399976479 28.4133592189664 18.8193129006763 67.2194119921686 75.3653426233338 -1099.68013449376 1078.31655148509
-0.0350500006899238 0.05444999679178 0.00564999974519014 16 -0.0405437886714934 -0.389613045874673 0.147407502393859 0.418534462234084 -0.498899750900966 -6.80144174661329 -1.95068255234971 -2.9745671118261 2.14106527081505 -0.48650392268266 -0.276842408535141 -3.1581002671941 12.0496497852255 -2.67159634451144 -1.67384014381457 3.82687463478719 4.95823933724761 27.6157631503096 -3.58846228270696
-0.0322500006482005 0.05444999679178 0.00564999974519014 16 -0.0428889234860739 -0.398815232587307 0.145926681141524 0.42683444773172 -4.24038668659368 -12.3855622975385 -1.97162964059894 -0.474994367781618 3.06558616606591 -0.942035834082474 2.67301758039806 2.2058394575349 11.3126418292853 3.14787529161738 -4.644647220997 11.9105679297569 13.1659976860261 20.7094098853868 -24.8242601033336
-0.0294500006064773 0.05444999679178 0.00564999974519014 16 -0.0685008033116659 -0.395702269768614 0.162074864145058 0.43305993573871 -6.46268918586405 -23.6256753727988 -2.20249199707427 12.0131858614375 4.44275193221842 -2.30609751806856 5.61184279452006 14.7581654069859 9.9922625364509 17.0642629250544 -7.81433479159433 35.6388612342363 40.2787950103235 -283.722922700457 281.317568602074
-0.026650000564754 0.05444999679178 0.00564999974519014 16 -0.0834326155980427 -0.337349998006054 0.175437408968185 0.38928692113361 -9.03751988038095 -36.2191413527902 -2.36195457151882 39.6806381858253 5.09263689606885 -4.46609274440115 8.25226037994259 32.3121854790179 8.5276796380895 36.7782782234191 -10.6142149514614 75.8997795386155 85.006351775179 -1537.24486924474 1521.33381918294
-0.0238500005230308 0.05444999679178 0.00564999974519014 16 -0.122519164482753 -0.177951565062006 0.205469717508725 0.298153500711772 -12.8884336454122 -44.99382439123 -2.03667280910261 66.1917337502335 4.01593911187997 -6.69799143593649 8.39730585393512 49.2302683827034 6.79232125883744 55.9282598186399 -10.4339786630377 111.185558141463 124.896222906503 -3252.9567899461 3213.04172702117
-0.0210500004813075 0.05444999679178 0.00564999974519014 16 -0.158458670775096 0.032986238078253 0.220140715475815 0.273238315132723 -10.8225309052118 -45.8753882974978 -0.858633349316957 76.4973641016184 1.35747729775095 -7.75886796987221 2.33146102266955 58.1953938004368 4.46858352847499 65.954261770309 -3.19009437198651 122.372752399116 139.051184380084 -3916.97561208614 3905.89180638136
-0.0182500004395843 0.05444999679178 0.00564999974519014 16 -0.184313291311264 0.257884161393546 0.217163411201909 0.384233753353988 -2.97556510935212 -37.9795875417538 0.817703851509834 61.4319561604339 -1.78148970975423 -6.91964326821524 -6.46465726238447 54.1922624851868 2.15129740446199 61.1119057534021 7.2823611138943 99.4115437021877 116.92028408047 -2698.38078912904 2708.50475523129
-0.015450000397861 0.05444999679178 0.00564999974519014 16 -0.17361014008522 0.390829829121164 0.182982455480281 0.465156978970413 11.2086209971415 -24.1377419728424 2.02200170254281 31.4828743541208 -4.13309913450246 -4.72654911817197 -19.5823737974508 37.8278111201092 0.904818215713979 42.5543602382812 21.6043754999936 55.6206163269632 73.2889867348797 -963.638174774754 938.391817498335
-0.0126500003561378 0.05444999679178 0.00564999974519014 16 -0.11641571521759 0.448553283764359 0.103182816582048 0.474762425601708 22.7177810145701 -9.30373221963759 2.1022236637085 2.68111458477354 -5.09696210154095 -2.38739131384362 -29.9941149344154 14.9006475370578 1.16573489300274 17.2880388509014 32.0963385981239 11.9848468044111 38.3756145441463 5.34222969690716 28.3219214224657
-0.0098500003144145 0.05444999679178 0.00564999974519014 16 -0.0404007720947266 0.413951905445817 0.00754896281131853 0.415987246496331 27.0534403434427 2.59652128565386 1.06792955708893 -18.5191182548317 -4.90942193980044 -0.983876276661479 -33.8701554277991 -7.01375843658585 2.46194874672405 -6.02988215992437 34.9380849848881 -21.1156395404856 41.2662028114722 14.2649074301139 -0.943760924135375
-0.00705000027269125 0.05444999679178 0.00564999974519014 16 0.0398404328028361 0.344385222614267 -0.0946158642628386 0.359361382748898 24.7434706421034 11.0240667598313 -0.278360685177097 -29.8143848800548 -4.06261014191446 -0.683970079223334 -27.3920648182903 -22.9302942500595 3.86115889177319 -22.2463241708362 27.1137041331132 -40.8384516398861 53.8315058611149 91.6359687792592 284.69627384802
-0.004250000230968 0.05444999679178 0.00564999974519014 16 0.102432292302449 0.242254729655494 -0.151424232361799 0.303494689728092 16.8045298604536 17.7208481938561 -1.16531103886911 -35.587327695612 -2.96797650069855 -1.01684934001622 -13.7421503807018 -31.8924570997276 4.51757641440983 -30.8756077597114 12.5768393418326 -53.3081758894681 62.8748094154112 -572.393230722638 594.826165612805
-0.00145000018924474 0.05444999679178 0.00564999974519014 16 0.138860785166423 0.139932517872852 -0.175914388869423 0.264214495110647 9.23120553730832 24.4531801199747 -1.26491512637534 -35.3889329808554 -1.69301261031079 -1.35614859985778 -3.53968027494289 -36.4208322045555 3.75260886107698 -35.0646836046977 2.27476514856754 -59.8421131008301 69.3958578962119 -815.494337438897 824.161838903723
0.0013499998524785 0.05444999679178 0.00564999974519014 16 0.159339044888814 0.0413132253455115 -0.176869667285549 0.241616624056023 3.12105620744054 31.5095172431971 -0.711194220089421 -32.9454079058182 -0.191655477421753 -1.4119142482568 0.882210118405068 -40.2266768775158 1.60882888533023 -38.814762629259 -1.59340433849449 -64.4549251490153 75.2566416425608 -980.834287964067 986.039439979933
0.00414999989420176 0.05444999679178 0.00564999974519014 16 0.159608918428421 -0.0456186296356221 -0.177189103604081 0.242800421432378 -0.187452542684978 37.6412345903265 0.0890731266066254 -29.4662757353509 1.54189490287403 -1.25571300763392 -0.0611084884790037 -45.4974646876187 -1.23328083262712 -44.2417516799848 0.150181615085629 -67.1075103256774 80.3789343568441 -1049.52879559 1050.0612424373
0.006949999935925 0.05444999679178 0.00564999974519014 16 0.158684860070546 -0.124110223532189 -0.182347310770613 0.271725549306821 -3.65056964258687 41.0929715080258 0.857673350891086 -28.3585634980431 3.164636856593 -1.02728427138479 1.97884189547733 -51.6799669665885 -4.22868710943902 -50.6526826952037 -1.12116854458624 -69.4515350060689 85.9678253640603 -1097.31288828547 1101.05255513348
0.00974999997764826 0.05444999679178 0.00564999974519014 16 0.137289268175761 -0.205952907490234 -0.169289726647936 0.299873231230215 -9.89965217603621 39.8519724818746 1.24572809880667 -26.8523143653879 3.99590732047462 -0.769581167851131 8.07065876015428 -55.1582895529137 -7.01695687886972 -54.3887083850626 -6.82493066134761 -66.7042868472626 86.3375536028759 -947.725029260136 1019.48329635483
0.0125500000193715 0.05444999679178 0.00564999974519014 16 0.0985456669330598 -0.277238785492567 -0.137627841058614 0.324829209411854 -17.640778177227 32.0575392329917 0.877626102999468 -23.1544818817763 3.48745961569141 -0.385079942323059 17.4530075449739 -50.8470381113579 -8.6694480007438 -50.4619581690348 -16.5753814419744 -55.212021114768 76.6127911498984 -429.130695312788 768.558279668848
0.0153500000610948 0.05444999679178 0.00564999974519014 16 0.0305466886361441 -0.33837171900707 -0.0643234113955017 0.345783200378486 -26.5158012756527 17.3043147403163 -0.636523500179246 -14.2146068627187 2.11219411194915 0.174600977434935 30.0376454856 -35.3742542430088 -7.28687888974921 -35.5488552204437 -30.6741689857792 -31.518921603035 56.55146478625 131.214571032889 393.089688217719
0.018150000102818 0.05444999679178 0.00564999974519014 16 -0.0626718823115031 -0.357541572115539 0.0520630345101624 0.366707376781167 -28.4210267957419 -2.69325006701768 -2.96556413012115 -0.320264352096701 1.44559038650176 0.800775093232009 36.6930774386358 -9.94672456993637 -2.33561567982192 -10.7474996631684 -39.6586415687569 2.37298571492098 41.1575954265085 -11.8355165909237 137.837300719899
0.0209500001445413 0.05444999679178 0.00564999974519014 16 -0.142164937655131 -0.338439070217622 0.170891903507678 0.404914702663083 -21.1582914389853 -23.9690302950879 -5.00458704744327 18.5174175719129 2.82877593657744 1.1442229721671 30.908363118251 18.7007386252483 3.71343439249135 17.5565156530812 -35.9129501656942 42.4864478670009 58.3358336173908 -166.034318279834 449.212802809706
0.0237500001862645 0.05444999679178 0.00564999974519014 16 -0.192244723637899 -0.251142837864463 0.249886635145134 0.403080747743408 -2.57000312045684 -41.8261459990041 -5.48520998040168 41.5511479303539 5.59363863831298 0.809511117811494 5.79728601394363 41.4495600314941 6.74841582051629 40.6400489136826 -11.2824959943453 83.3772939293581 93.4381155340341 -1644.76422091567 1742.19891219924