TITLE="DynamicStudio Exported Data"
VARIABLES= "X (m)[m]" "Y (m)[m]" "Z (m)[m]" "Status[-]" "U[m/s]" "V[m/s]" "W[m/s]" "Length[m/s]" "dU/dX[1/s]" "dU/dY[1/s]" "dU/dZ[1/s]" "dV/dX[1/s]" "dV/dY[1/s]" "dV/dZ[1/s]" "dW/dX[1/s]" "dW/dY[1/s]" "dW/dZ[1/s]" "Vorticity X[1/s]" "Vorticity Y[1/s]" "Vorticity Z[1/s]" "Vorticity Magnitude[1/s]" "Lambda-2[1/s²]" "Q-Criterion[1/s²]"
ZONE T="DynamicStudio Data" I=26 J=26 F=POINT
-0.0350500006899238 0.0600499968752265 0.00564999974519014 16 0.19749282737573 -0.0436320180892168 -0.313322668753099 0.372931983908543 -0.162176383341805 13.0778525736822 -0.990466735098248 -10.611247555164 2.90383964124543 0.241363716567215 1.07875023755716 -12.6243155928132 -2.22473139820531 -12.8656793093804 -2.0692169726554 -23.6891001288463 27.0366571137456 -133.119009184129 136.317450561674
-0.0322500006482005 0.0600499968752265 0.00564999974519014 16 0.195545822580655 -0.0736577381535123 -0.308827288666119 0.372877896024292 0.811545609688141 12.5911930680641 -1.66985186669547 -16.9091811974371 3.02098052229223 -0.383691377548327 2.72166677907018 -11.7381588576094 -1.28277885673756 -11.3544674800611 -4.39151864576565 -29.5003742655012 31.9136561612191 -200.140613616526 210.483095079227
-0.0294500006064773 0.0600499968752265 0.00564999974519014 16 0.198608802954356 -0.13993075115548 -0.29193468495893 0.379805123730537 -2.09882358736165 11.523867658442 -2.80090968370975 -25.2739730881115 3.23283613732059 -1.6000634616614 8.51199605600995 -9.80383419453104 0.514984801377607 -8.20377073286963 -11.3129057397197 -36.7978407465535 39.361971166622 -271.504225187271 293.207342861261
-0.026650000564754 0.0600499968752265 0.00564999974519014 16 0.178824687798818 -0.217303199361001 -0.252703405581415 0.378230036632889 -8.19275690225452 9.81953263078638 -3.52068950926417 -26.5572526229421 3.49179105921489 -2.80387763503595 16.3654237097596 -7.03738590613026 1.73654309222419 -4.23350827109431 -19.8861132190238 -36.3767852537285 41.6731399901319 -252.767725583891 261.894590270189
-0.0238500005230308 0.0600499968752265 0.00564999974519014 16 0.148487566312154 -0.290271424597207 -0.193018188463369 0.37889586744207 -17.5465794296883 7.35909464254666 -3.44097611526137 -23.2688975568755 3.88877981860242 -3.698124577204 25.589108231614 -3.40009406986249 1.27610570624413 0.298030507341517 -29.0300843468754 -30.6279921994221 42.2008119061455 -26.6028393828586 161.051978149906
-0.0210500004813075 0.0600499968752265 0.00564999974519014 16 0.0759958096345266 -0.348315877272859 -0.10420872516154 0.371428017039859 -28.141521641285 3.81853609081113 -3.08011834251324 -15.6436679398794 4.66297389457706 -4.42671048118145 32.5922477796771 0.867490011178216 -0.657261302968322 5.29420049235967 -35.6723661221903 -19.4622040306905 40.9795516000495 -9.66106762089781 48.1723780726347
-0.0182500004395843 0.0600499968752265 0.00564999974519014 16 -0.0160685773690541 -0.377540760581614 -0.00689189207778934 0.377945397188034 -36.4845631223836 -1.17822655509667 -2.93634978906737 -2.4110508497865 5.87227800371868 -4.93315448987445 39.5345169526565 5.35180812628919 -2.52754611919503 10.2849626161636 -42.4708667417239 -1.23282429468983 43.7158419060039 12.9921679625275 2.77416761757075
-0.015450000397861 0.0600499968752265 0.00564999974519014 16 -0.139004758993785 -0.36000179566637 0.123138152627895 0.405076067595386 -37.4213092484307 -7.82112113948602 -2.91706753302773 19.154824533154 7.1800865036735 -4.68920452307026 42.9714450264412 9.8019743883055 -2.96627470579169 14.4911789113758 -45.8885125594689 26.97594567264 55.1674858598365 3.03518550323755 142.14180946551
-0.0126500003561378 0.0600499968752265 0.00564999974519014 16 -0.239337658882141 -0.266625231215706 0.242631389350863 0.432714131937406 -26.9712988111727 -15.4909657519179 -2.4321371356588 45.6101074195148 7.58514057259795 -3.26865951059656 40.1829633557075 14.6123795885458 -1.96462787613412 17.8810390991424 -42.6151004913663 61.1010731714327 76.6101787744623 14.7833735321144 685.543476868141
-0.0098500003144145 0.0600499968752265 0.00564999974519014 16 -0.303052060604095 -0.101596089331433 0.360914395176417 0.482101148566759 -5.5329781876565 -21.9970978356975 -1.21799861705164 67.4699611747534 5.9630402878798 -1.08694366735679 23.2264321124237 19.6237497152554 -0.566304150087321 20.7106933826121 -24.4444307294753 89.4670590104509 95.030614341149 -1481.1649262741 1500.52609180942
-0.00705000027269125 0.0600499968752265 0.00564999974519014 16 -0.277038199106852 0.110333533968854 0.383704601020048 0.485955628968714 18.7879503758084 -24.3971258550837 0.325151965617046 71.5263262715182 2.00170817358185 0.745407523047257 -6.64587433500771 22.633824572963 0.0152391624594638 21.8884170499158 6.97102630062476 95.923452126602 98.6357271809741 -1338.3556327783 1768.25109080548
-0.004250000230968 0.0600499968752265 0.00564999974519014 16 -0.194169692993164 0.292146278288516 0.325716199151551 0.478688165703544 35.40983397238 -21.077562779215 1.52440237950773 53.7553968443189 -3.15968139595558 1.43019411292331 -36.3869050817243 20.8836580843495 -0.310692517400218 19.4534639714262 37.911307461232 74.8329596235339 86.1143213404431 55.8593828781017 1036.72967682179
-0.00145000018924474 0.0600499968752265 0.00564999974519014 16 -0.065340081055959 0.401780433441357 0.169830047012074 0.441065854217766 37.3269793016886 -13.2603490907517 1.87728401018776 22.8722537868992 -7.26749086820607 1.03231646756229 -49.9316486325434 13.9685239733577 -0.536803718805969 12.9362075057954 51.8089326427312 36.1326028776508 64.4753903200754 -3.60600533613494 95.2004915722643
0.0013499998524785 0.0600499968752265 0.00564999974519014 16 0.0319795441627502 0.413254748133671 0.0295943567855284 0.415545429590352 26.9437389562711 -4.2480972982517 1.69482778538453 -5.70427976695588 -8.83155768624617 0.1570757241266 -39.9318893470281 4.93021216553851 0.258556061726565 4.77313644141191 41.6267171324127 -1.45618246870418 41.9247764226882 90.3727958647825 -190.601247141244
0.00414999989420176 0.0600499968752265 0.00564999974519014 16 0.101164019107819 0.367846051083373 -0.0675702606401561 0.387441113180645 14.0076898434606 3.18744205037544 1.63121436258004 -23.1682012456813 -7.92674284678742 -0.662772378198754 -17.8012266921101 -2.4068371332685 2.08579083088163 -1.74406475506975 19.4324410546901 -26.3556432960567 32.7914845769883 20.5763812700919 2.93795858507499
0.006949999935925 0.0600499968752265 0.00564999974519014 16 0.121958999236425 0.285921363554274 -0.0761512782145292 0.320037561553628 7.41100957779335 8.40708872873476 2.04313602506226 -29.9620924079266 -5.63716943348739 -1.09210318628631 -2.20881676358909 -6.85707096603532 3.72472347395435 -5.76496777974901 4.25195278865134 -38.3691811366613 39.0321408215895 -212.90434499075 213.748200785161
0.00974999997764826 0.0600499968752265 0.00564999974519014 16 0.151832326253255 0.204748765969028 -0.0838104403430285 0.268326857343441 7.342391284708 12.0544037271522 2.52674608495855 -32.0547303782235 -3.167760952975 -0.996441887656083 -0.998468661369633 -9.54354819976844 4.22194372532306 -8.54710631211236 3.52521474632819 -44.1091341053756 45.0676810679703 -352.464570173146 373.780060863512
0.0125500000193715 0.0600499968752265 0.00564999974519014 16 0.169108167886734 0.111369783414844 -0.0857781011758683 0.219906079373023 8.35570707371399 14.4971699910217 2.28238034962901 -32.3944763255892 -1.07904834747547 -0.475304759889149 -7.91230993957739 -11.375685981123 3.71437957094651 -10.9003812212338 10.1946902892064 -46.8916463166109 49.2095165099515 -437.64561946445 500.292273702237
0.0153500000610948 0.0600499968752265 0.00564999974519014 16 0.200627723137538 0.0280362173627752 -0.132727812175872 0.242186260758861 6.02525517275304 15.5730580985303 1.31281626538924 -30.797530546739 0.398681869645031 0.224984072051488 -15.0450738202148 -12.3359784962643 2.12823511320996 -12.5609625683158 16.3578900856041 -46.3705886452693 50.7502693589316 -495.173719889381 518.212357171661
0.018150000102818 0.0600499968752265 0.00564999974519014 16 0.201136231223742 -0.0578361230436713 -0.175042335842154 0.272838083809227 -0.12854336712294 15.2560175030172 0.196652288855759 -26.7564879010991 1.30064836823758 0.900185349383328 -13.0003730440641 -11.6104269249802 0.0131179177633887 -12.5106122743635 13.1970253329198 -42.0125054041163 45.7791164992083 -427.636597490969 421.053722927801
0.0209500001445413 0.0600499968752265 0.00564999974519014 16 0.196193504730861 -0.119231606634567 -0.205630888553181 0.308207932484563 -7.37287464489749 13.9717900433184 -0.307861403483419 -21.2947300144105 1.87548083228264 1.45899180906262 -4.57918145999081 -9.13145705775118 -1.90220855209718 -10.5904488668138 4.27132005650739 -35.2665200577289 37.0692489701088 -275.507317575386 306.067969060756
0.0237500001862645 0.0600499968752265 0.00564999974519014 16 0.156792236963908 -0.175336467945793 -0.198188985794162 0.307580162972144 -17.2439461852582 11.8439472274722 -0.183705225924319 -17.1362994531666 2.57308968404855 1.89337016875453 14.7276672628944 -5.21262549648572 -2.40562613949574 -7.10599566524025 -14.9113724888187 -28.9802466806388 33.3571416875815 -4.61896502718807 206.458781301793
0.0265500002279878 0.0600499968752265 0.00564999974519014 16 0.0948941868543625 -0.21258737146607 -0.112566748812666 0.258591512126476 -25.7555086250192 8.7618270677245 0.0659827428779491 -15.1502585173103 3.75882137349731 2.13883258775405 36.1197315931662 -0.064784415854444 -0.286148476493723 -2.2036170036085 -36.0537488502883 -23.9120855850348 43.3187785040655 15.614680054076 39.9831914571842
0.029350000269711 0.0600499968752265 0.00564999974519014 16 0.0061252454916636 -0.257340586039936 0.021291083546433 0.258292481683637 -29.4116326694452 5.04455136689713 0.14447849915563 -13.2322895511106 5.23387026961983 2.1293379712109 46.9492805565432 5.00917799082758 3.5703687542384 2.87984001961668 -46.8048020573876 -18.2768409180078 50.3291753172251 71.5682979391191 -190.95862737876
0.0321500003114343 0.0600499968752265 0.00564999974519014 16 -0.0775465456644695 -0.284030409968303 0.167178260272291 0.338578367942968 -21.2529539496804 1.84103884016105 0.017028242568943 -8.6620723707486 6.49910632722611 1.98221503310124 36.480728594595 8.6452394522887 7.58779456950674 6.66302441918747 -36.463700352026 -10.5031112109097 38.5267787763494 130.374824964521 -251.885086987454
0.0349500003531575 0.0600499968752265 0.00564999974519014 16 -0.117855035861333 -0.304396818592213 0.238071654367571 0.404011565750597 -13.8651427436985 0.308175940185194 -0.0461539887307183 -6.92507250731244 6.95516527712196 1.78547648442482 23.6861545009297 10.2929223929653 9.90143603880681 8.50744590854045 -23.7323084896604 -7.23324844749764 26.2282097223271 172.723334783845 -180.003478938163
-0.0350500006899238 0.0572499968335032 0.00564999974519014 16 0.159814984798431 -0.0522173312813781 -0.275421755214144 0.32268347075348 0.418098761368307 21.4915872083841 -1.3365239060585 -10.5819299822466 3.60098121567925 -0.202711699011914 0.282172385206869 -21.1067111395397 -0.623250350182537 -20.9039994405278 -1.61869629126537 -32.0735171906306 38.3185056502811 -189.385258527357 222.521696692154
-0.0322500006482005 0.0572499968335032 0.00564999974519014 16 0.159875380595525 -0.0828796225101784 -0.273347833598964 0.327335007723342 1.47312452506762 20.7988030799739 -1.96944728574698 -16.8298315644893 3.47281209807677 -0.874365294067162 1.33110382488126 -19.7460078129686 0.105330381434683 -18.8716425189014 -3.30055111062823 -37.6286346444632 42.2249532172811 -311.95091222638 341.03350952956
-0.0294500006064773 0.0572499968335032 0.00564999974519014 16 0.165255441268285 -0.149641896946705 -0.263259304716873 0.344974665317027 -0.923330816799245 19.3175065305727 -2.97844961637014 -25.3018849364609 3.35075577513567 -2.11766845752417 6.49751719265133 -16.9857408831139 1.43513423070177 -14.8680724255897 -9.47596680902147 -44.6193914670336 47.9764902791633 -447.022794776142 472.541511973263
-0.026650000564754 0.0572499968335032 0.00564999974519014 16 0.151351124445597 -0.227867038399745 -0.231673526141482 0.358473392003989 -6.37660519075627 16.8939737243973 -3.59095091946777 -26.8629430047095 3.5980396979544 -3.24437139582344 13.6243814090997 -13.1523691485622 2.09338346690617 -9.90799775273879 -17.2153323285675 -43.7569167291068 48.0541761794881 -425.13861681086 431.315286297954
-0.0238500005230308 0.0572499968335032 0.00564999974519014 16 0.126504351298014 -0.300929535622514 -0.183392259980804 0.37442577011763 -14.6134265073126 12.9648150866033 -3.54914334414116 -23.9977862150627 4.50028915144652 -3.92365827461728 21.5805606344333 -7.61520986281078 1.22607797409277 -3.69155158819351 -25.1297039785744 -36.962601301666 44.8482270570978 -166.842619638469 279.675742976172
-0.0210500004813075 0.0572499968335032 0.00564999974519014 16 0.0644743772347769 -0.360967598412681 -0.106683676390288 0.381884746005622 -23.5170297013453 6.58735640819975 -3.38688343151369 -16.8097194566893 6.1371646344521 -4.36962140972588 27.3104825527192 0.252574934314361 -0.820749259552514 4.62219634404024 -30.6973659842328 -23.397075864889 38.87307727001 -23.189078079205 74.2693192823697
-0.0182500004395843 0.0572499968335032 0.00564999974519014 16 -0.0153673601150512 -0.393156220150025 -0.0218309786139677 0.394061620596074 -30.0569283303319 -2.79918277515577 -3.51373437168453 -3.85470021675433 8.34376414851596 -4.62879385313683 33.5754726687011 9.99861174019074 -2.58933257816715 14.6274055933276 -37.0892070403856 -1.05551744159856 39.8833848907765 36.4659156287219 -41.0985231517307
-0.015450000397861 0.0572499968335032 0.00564999974519014 16 -0.118648519118627 -0.379821858297413 0.0955911691983541 0.409242943443441 -29.5665638993909 -14.8672647214509 -3.66523505181788 17.9500954183301 10.5562064636561 -4.27687452787929 37.09196524409 20.3537470524919 -2.90489810548535 24.6306215803712 -40.7572002959078 32.817360139781 57.8342115182725 -7.81345053198721 232.982412185581
-0.0126500003561378 0.0572499968335032 0.00564999974519014 16 -0.19710787653923 -0.288733540468966 0.203340279021456 0.404432740338949 -19.2244586109309 -27.912235399922 -3.18360230798123 45.9497626188955 11.2862623561245 -2.87690181501334 34.2743704387254 30.5383513517451 -1.90300020346382 33.4152531667584 -37.4579727467067 73.8619980188174 89.3043874500205 -1192.91025336584 1277.66649960444
-0.0098500003144145 0.0572499968335032 0.00564999974519014 16 -0.238639847437541 -0.11892603198532 0.304033389904847 0.404386795093285 -0.928354923572232 -38.0949881696549 -1.91881967776218 69.9336250702219 9.02364335618137 -0.792841452198008 18.9136161018009 39.0893035704468 -0.563217928211446 39.8821450226448 -20.8324357795631 108.028613239877 117.024600621612 -2581.31798158213 2718.4675033556
-0.00705000027269125 0.0572499968335032 0.00564999974519014 16 -0.206094374656677 0.103822088680463 0.318138235583125 0.393021442548679 17.7498992193682 -40.8615509375036 -0.434330737930721 75.7699910051844 3.636758765146 0.903905460995103 -6.65174784585189 42.4046348060111 0.0773607045057187 41.500729345016 6.21741710792117 116.631541942688 123.951133062958 -2947.57298396761 3121.06709596466
-0.004250000230968 0.0572499968335032 0.00564999974519014 16 -0.132050181229909 0.302776070788192 0.262552062063478 0.421952822835175 28.66782978743 -34.188016621403 0.601351465051802 57.9016673096713 -3.03271324402677 1.49511571783697 -30.3065678840532 36.9135599487222 -0.0482730301781535 35.4184442308852 30.907919349105 92.0896839310742 103.393788772596 -1424.4830613845 1854.39922787874
-0.00145000018924474 0.0572499968335032 0.00564999974519014 16 -0.0298906167348225 0.424144041351974 0.131163923647449 0.444966955682966 28.0465541219586 -20.7713251528774 0.854498933507937 25.1205262939539 -8.05798639235037 1.04117694849842 -40.110884765263 23.3175035874346 -0.142338123596632 22.2763266389362 40.9653836987709 45.8918514468313 65.4252200556493 -4.15201888627663 302.939793994256
0.0013499998524785 0.0572499968335032 0.00564999974519014 16 0.0419821059703827 0.440231699574312 0.0168349972450233 0.44254927823242 18.716086523137 -6.26733147084668 0.740460002670931 -5.66628753130809 -9.82289552903951 0.169586657983862 -30.9613853905031 7.5390063662356 0.486952921192272 7.36941970825174 31.7018453931741 0.601043939538594 32.552674267813 121.837800577826 -193.380946848997
0.00414999989420176 0.0572499968335032 0.00564999974519014 16 0.0884749945004781 0.390959508951831 -0.0568741423760851 0.404860260290797 8.33218130802174 5.15731638151716 0.864699239419562 -24.7444075940104 -8.58628636284443 -0.620854152695948 -12.6553980487404 -4.13164313405676 1.83921143514783 -3.51078898136081 13.52009728816 -29.9017239755275 33.0035114292645 -63.9586080492552 63.982856245215
0.006949999935925 0.0572499968335032 0.00564999974519014 16 0.0979209280014037 0.301711778726118 -0.0582863856177816 0.322514818746548 3.55922838779872 12.9447238808308 1.44443053905946 -32.0308122795744 -5.70455128063413 -1.04982868265505 0.273008501956412 -10.275885765383 3.00671292616697 -9.22605708272797 1.17142203710305 -44.9755361604053 45.9270204977276 -369.030970901201 376.693588273605
0.00974999997764826 0.0572499968335032 0.00564999974519014 16 0.115688326358795 0.212943317384052 -0.0555938192965308 0.248634909090014 4.52672008716319 18.3964046022311 2.01836262615974 -33.9332318934678 -2.58046605391273 -0.947310502017847 0.805535952233131 -13.6662232332869 3.31107258536833 -12.7189127312691 1.21282667392661 -52.3296364956989 53.866803741995 -602.835937133821 604.440583774907
0.0125500000193715 0.0572499968335032 0.00564999974519014 16 0.128346215486526 0.114214469029491 -0.0561462324128176 0.180748707822647 6.5554913516565 22.1980361005436 1.83009930066263 -33.8232049869729 0.0305265875488055 -0.393677433705838 -6.09934373192054 -16.6724814607617 2.89600080058337 -16.2788040270558 7.92944303258317 -56.0212410875165 58.8749095994543 -761.578484682972 774.680780325485
0.0153500000610948 0.0572499968335032 0.00564999974519014 16 0.154365067879359 0.0260589317317742 -0.0960313842534864 0.183656388034942 5.6446632002285 24.0202144259561 0.92936511584928 -31.4738589622204 1.64300692537377 0.365269057504252 -13.9344539715978 -19.2759700119885 1.58366165438659 -19.6412390694927 14.8638190874471 -55.4940733881765 60.7149369699223 -788.742797594528 796.815376370317
0.018150000102818 0.0572499968335032 0.00564999974519014 16 0.158763604958852 -0.0608467314286584 -0.14279432556062 0.222032489508617 0.65163072587651 23.7263125039855 -0.0645650008917823 -27.0346310396201 2.2968229798454 1.05362626909851 -13.847518257227 -19.781295171204 -0.439628444963538 -20.8349214403025 13.7829532563352 -50.7609435436057 56.5750575901344 -662.463223713334 661.580587984393
0.0209500001445413 0.0572499968335032 0.00564999974519014 16 0.155323711633682 -0.125277676811287 -0.179901496301263 0.268671732927619 -5.86859752800217 21.8699371139904 -0.402269878949675 -21.4988598398374 2.587485122445 1.55046281491895 -6.99801008178837 -17.3416446253198 -2.55749762203743 -18.8921074402387 6.5957402028387 -43.3687969538278 47.7626220132355 -484.358378659452 487.457727573873
0.0237500001862645 0.0572499968335032 0.00564999974519014 16 0.123687008619308 -0.180975625654683 -0.183612937705281 0.285944687090108 -14.7615342374414 18.5925289878937 -0.0176960023232799 -17.9183908913985 3.3411701021819 1.88447946184141 10.5653387497957 -12.066764677512 -3.39664233376339 -13.9512441393535 -10.583034752119 -36.5109198792922 40.4930254245406 -122.14566473955 345.544831961786
0.0265500002279878 0.0572499968335032 0.00564999974519014 16 0.0695148853460947 -0.224212830093068 -0.11406157676715 0.260986121772083 -22.1327811197238 13.514762921364 0.615243223153326 -16.4021732561428 4.97993238276337 2.05265467763575 30.8121551243632 -4.31280672248747 -1.72486305355805 -6.36546140012323 -30.1969119012099 -29.9169361775068 42.9813408056904 -11.7884332358313 130.933777844473
0.029350000269711 0.0572499968335032 0.00564999974519014 16 -0.00616589268048595 -0.27098570937446 0.00343318828866662 0.271077589814341 -25.0976212071639 6.81711585406312 1.10230467724063 -14.5486890962889 7.05656370139994 2.03243943703524 41.8308900167445 4.42183948388689 1.71953669632138 2.38940004685165 -40.7285853395039 -21.3658049503521 46.0545819383656 74.3281659143333 -164.042630799304
0.0321500003114343 0.0572499968335032 0.00564999974519014 16 -0.0803456004460652 -0.304241587542153 0.139194558926198 0.344083542669316 -18.114543140593 0.432531091606447 1.26675467469733 -9.52017044213986 8.80931596543408 1.93212703936317 33.063067224383 11.7458709067439 5.3189208297205 9.8137438673807 -31.7963125496856 -9.9527015337463 34.7328566097245 161.730894987461 -269.530040774694
0.0349500003531575 0.0572499968335032 0.00564999974519014 16 -0.116055889924367 -0.323431472515998 0.203745237209563 0.399485930522696 -11.6013617551313 -2.94951908034473 1.32346143008744 -6.87727275271659 9.4994611353281 1.82544942938003 21.3465991549375 15.3941564120611 7.25928846518213 13.568706982681 -20.0231377248501 -3.92775367237186 24.5043486434756 199.035416731026 -202.102289922202
-0.0350500006899238 0.05444999679178 0.00564999974519014 16 0.0743143618106843 -0.0651326761875922 -0.187617390889985 0.212049935729895 1.1389223304646 34.2931668372532 -1.88282195570502 -10.0894851987428 5.93681597864473 -1.00418400293804 -1.12795836162477 -35.1116170794922 2.2158210752133 -34.1074330765542 -0.754863594080255 -44.382652035996 55.9795195751588 -187.528007458442 331.05827262354
-0.0322500006482005 0.05444999679178 0.00564999974519014 16 0.0777496854464212 -0.0947930470828707 -0.191199857015939 0.22713018444317 2.28515101355112 33.9336499541477 -2.4206468563466 -16.1023659695954 5.17337124018533 -1.68778788428798 -1.06710037100111 -33.6040726279037 2.58012348716681 -31.9162847436157 -1.35354648534549 -50.0360159237431 59.3639975864549 -387.053589959153 518.178273422658
-0.0294500006064773 0.05444999679178 0.00564999974519014 16 0.0879128710428874 -0.159341034388441 -0.19390036142276 0.265924027298886 0.917181743330799 32.7624074549354 -3.20035090247266 -24.5865650885408 3.85264212031233 -2.88352615372113 2.78675948696308 -30.2553776561879 3.0956919567587 -27.3718515024667 -5.98711038943574 -57.3489725434762 63.8276460264732 -682.659718955719 745.490977210986
-0.026650000564754 0.05444999679178 0.00564999974519014 16 0.0831715456644695 -0.238133656033703 -0.174882751420761 0.306935043435399 -2.67353382649104 29.6423563367155 -3.60241768214618 -26.7373910350178 2.76448637988182 -3.84561605168488 8.06545520178702 -24.8190654777386 2.79164299017155 -20.9734494260537 -11.6678728839332 -56.3797473717334 61.275613029682 -699.478569813424 719.032773627192
-0.0238500005230308 0.05444999679178 0.00564999974519014 16 0.0712188192208607 -0.314781775747736 -0.147780160182544 0.354962902706311 -7.88771578198244 23.1427328849141 -3.58059008015593 -24.677158928671 2.41605767030633 -4.197151542642 12.9901641124723 -16.2069020342164 1.26035817242712 -12.0097504915744 -16.5707541926283 -47.8198918135851 52.0150560361648 -527.252559046453 523.63310109713
-0.0210500004813075 0.05444999679178 0.00564999974519014 16 0.0345189960797627 -0.381987534983976 -0.102488967243892 0.397001292668184 -12.690400302766 11.9678514394082 -3.69077993467707 -18.1524490450961 2.80128448931591 -4.2073628493703 15.2571255247758 -3.43093328143729 -0.963753239537812 0.776429567933007 -18.9479054594529 -30.1203004845043 35.5929552784137 -126.663463869094 233.102570823871
-0.0182500004395843 0.05444999679178 0.00564999974519014 16 -0.00694584250450125 -0.422739250738717 -0.0633037535008043 0.427509162533997 -15.4407339560214 -4.08843315012603 -4.19335435326577 -5.63354280708763 3.71625715399221 -4.08000020147159 19.4212811295176 13.0305784798131 -2.53535624784556 17.1105786812847 -23.6146354827834 -1.5451096569616 29.2029155333025 -13.0595703737949 83.916700914029
-0.015450000397861 0.05444999679178 0.00564999974519014 16 -0.0597213995456696 -0.419666232919165 0.00932377065289378 0.423996845879123 -12.5238318790989 -23.6792775984334 -4.56031474274778 16.2052040627928 5.02754878472265 -3.60826754474859 22.63697163207 31.2846283187153 -2.6233011406293 34.8928958634639 -27.1972863748178 39.8844816612262 59.5649095128758 -415.068550431987 556.54338226709
-0.0126500003561378 0.05444999679178 0.00564999974519014 16 -0.0825376272201539 -0.334434817479614 0.0713593304923416 0.351782974428938 -3.36828894979372 -43.5332086013914 -4.04988828156132 45.9727402160377 6.01940665064926 -2.37578969565843 20.7560170703574 49.0733709998502 -1.71986631237439 51.4491606955087 -24.8059053519187 89.5059488174291 106.177511509306 -2150.34338569602 2177.1537803306
-0.0098500003144145 0.05444999679178 0.00564999974519014 16 -0.0790760803222657 -0.155665813012359 0.133701824674693 0.219911458867596 7.7740308985909 -57.9090113149588 -2.70810179989243 72.581550008842 5.6111231148301 -0.619374088686761 10.4101122065392 62.5442760447784 -0.73605546993164 63.1636501334652 -13.1182140064316 130.490561323801 145.56620772522 -4207.58400810263 4303.82457694373
-0.00705000027269125 0.05444999679178 0.00564999974519014 16 -0.0360150607426961 0.0862072716359883 0.133069799586277 0.162592588530822 14.8484575877462 -60.9433927376512 -1.34676062224737 81.0457977021675 3.07427607026232 0.7637675152914 -5.10096177251532 66.1816626311392 -0.321143638493965 65.4178951158478 3.75420115026796 141.989190439819 156.379427129721 -4885.91248381601 4921.68118656659
-0.004250000230968 0.05444999679178 0.00564999974519014 16 0.00698415597279856 0.313574637559165 0.103714909913057 0.330355284948323 14.6622059130671 -50.7098615477668 -0.633121396604369 63.3118990850965 -0.942290392973226 1.23040921490261 -16.4541596905406 56.2695432215789 -0.290398919334284 55.0391340066763 15.8210382939362 114.021760632863 127.595350317796 -3157.28780921499 3113.08528745794
-0.00145000018924474 0.05444999679178 0.00564999974519014 16 0.0469807020823161 0.450803373919528 0.0392983287828974 0.454945301053331 9.42081571488357 -31.4951907348545 -0.611544453429015 28.0791030913286 -4.28582581744959 0.802248810773867 -19.6719696226496 35.5742762467404 -0.126092817665227 34.7720274359665 19.0604251692206 59.5742938261831 71.5645875033698 -795.728088280088 802.763542244062
0.0013499998524785 0.05444999679178 0.00564999974519014 16 0.0598515017827352 0.473786348419089 -0.00589013766633192 0.477588106987257 2.33565326551924 -10.9930127521924 -0.678193470380081 -5.88238090785575 -5.26340010158756 0.0671714973447722 -12.8969418745069 12.8494148093297 0.370009230305211 12.782243311985 12.2187484041268 5.11063184433664 18.4065780225028 107.128256118827 -87.6515955215695
0.00414999989420176 0.05444999679178 0.00564999974519014 16 0.062444406747818 0.417634589044998 -0.0326856740720298 0.423540207289006 -3.1889543703851 5.4839083314684 -0.320636955234702 -27.3976270526684 -3.63069643257698 -0.592265424580406 -2.09064062576497 -4.10913662934962 1.08411944941567 -3.51687120476921 1.77000367053027 -32.8815353841368 33.1164108152267 -80.464216862969 151.32684824391
0.006949999935925 0.05444999679178 0.00564999974519014 16 0.0470318897565205 0.318628309487831 -0.0212635305415218 0.322781870606502 -4.53188461668228 17.3087495150426 0.438288158104495 -35.3205931233393 -0.569431212364448 -0.979175640356684 5.83057647203864 -14.087219391081 1.59598629223664 -13.1080437507244 -5.39228831393415 -52.6293426383819 54.5045437626965 -590.835381005365 589.444930819936
0.00974999997764826 0.05444999679178 0.00564999974519014 16 0.0433368508021037 0.218124558640023 -0.00757518771608981 0.222516941351176 -1.47514600059952 25.950047885886 1.06786145523539 -36.7369573647748 2.39998987598598 -0.856818651038231 5.25410406666518 -20.7030180076914 1.72001913058575 -19.8461993566532 -4.1862426114298 -62.6870052506608 65.8866973174566 -927.395131497389 928.026829312729
0.0125500000193715 0.05444999679178 0.00564999974519014 16 0.0427406990528107 0.110750534368368 0.00135653364336273 0.118719368267893 2.75377916237474 31.951994664618 0.94326571708026 -35.5471220021958 4.31663972105437 -0.252800956023284 -1.78020841173709 -26.4644632148322 1.56758938353365 -26.2116622588089 2.72347412881735 -67.4991166668138 72.4610191792825 -1120.69015328185 1153.7610066135
0.0153500000610948 0.05444999679178 0.00564999974519014 16 0.0589095588525137 0.0165532317416122 -0.0198359350466247 0.0643258107174966 4.82073887976706 34.7554528489487 0.232384483459407 -31.7791483499332 4.73336578616515 0.609034679727045 -11.3107542244404 -30.8038097309462 0.683025266701871 -31.4128444106732 11.5431387078998 -66.534601198882 74.4772717135452 -1089.59222951092 1155.23173959277
0.018150000102818 0.05444999679178 0.00564999974519014 16 0.0679887708028157 -0.0691891646004903 -0.0623844697718353 0.11533184955642 2.12314944684542 34.4017603704118 -0.429806958333405 -26.6504561201176 4.00066419990377 1.35529178027584 -15.0027443295783 -31.7669582465367 -1.23791783175924 -33.1222500268126 14.5729373712449 -61.0522164905294 70.9706072178573 -911.396432149188 954.341048566765
0.0209500001445413 0.05444999679178 0.00564999974519014 16 0.0695098718007405 -0.134548448555482 -0.105421863329442 0.184522834777417 -2.79315869108812 31.711178202524 -0.396695718289412 -21.3792967338008 3.20626403176498 1.79286635157969 -11.7347078864232 -28.3146849154348 -3.69447888075078 -30.1075512670145 11.3380121681338 -53.0904749363248 62.0774813614823 -709.246336952238 713.590212833836
0.0237500001862645 0.05444999679178 0.00564999974519014 16 0.0524994579950968 -0.190119095903938 -0.12993805537563 0.23618925028864 -9.41850042334493 26.5701136776102 0.426439801528876 -19.0344842866841 3.44910934127699 1.97510986439395 1.76880565160005 -20.0563339604121 -5.13214486368478 -22.031443824806 -1.34236585007118 -45.6045979642942 50.6652328383669 -476.539245491097 542.757927199838