TITLE="DynamicStudio Exported Data"
VARIABLES= "X (m)[m]" "Y (m)[m]" "Z (m)[m]" "Status[-]" "U[m/s]" "V[m/s]" "W[m/s]" "Length[m/s]" "dU/dX[1/s]" "dU/dY[1/s]" "dU/dZ[1/s]" "dV/dX[1/s]" "dV/dY[1/s]" "dV/dZ[1/s]" "dW/dX[1/s]" "dW/dY[1/s]" "dW/dZ[1/s]" "Vorticity X[1/s]" "Vorticity Y[1/s]" "Vorticity Z[1/s]" "Vorticity Magnitude[1/s]" "Lambda-2[1/s²]" "Q-Criterion[1/s²]"
ZONE T="DynamicStudio Data" I=26 J=26 F=POINT
-0.0350500006899238 0.0600499968752265 0.00564999974519014 16 -0.432614575425784 -0.225345383107585 0.478489363708068 0.683292019374211 4.16185196851059 -26.4655522488105 -2.04794772820324 28.964108431295 -2.26352139409593 -5.12226867009336 6.51363471327327 23.2554980715748 8.45547882013597 28.3777667416682 -8.56158244147651 55.4296606801055 62.8573434234884 -884.44718252473 905.642470617284
-0.0322500006482005 0.0600499968752265 0.00564999974519014 16 -0.416593521634738 -0.144717896465833 0.492282889566074 0.66093560592924 9.97018468093264 -22.9619516688673 -1.39126047074573 45.6832688279037 -3.37585283482796 -4.70392754654528 7.13920257694224 20.122279064876 8.1307896607679 24.8262066114212 -8.53046304768797 68.6452204967709 73.4933713444365 -1094.44575576333 1173.52249300778
-0.0294500006064773 0.0600499968752265 0.00564999974519014 16 -0.364108634789785 0.0285590309841791 0.508610471043115 0.626159186975593 22.2853770953057 -15.5495585537567 -0.137834509052085 59.36282052695 -5.41149830663528 -3.70555426700114 1.6029976743127 13.7669135889754 7.2254907013628 17.4724678559765 -1.74083218336479 74.9123790807067 76.9427200532986 -514.036003066649 975.625421359957
-0.026650000564754 0.0600499968752265 0.00564999974519014 16 -0.272043322722117 0.186063083221282 0.484050385989249 0.585603805103622 34.6222947874071 -6.37755392757062 0.933061727270532 46.0247991239198 -6.90859453688581 -2.56394787776057 -16.7821210616034 6.18114173406692 5.10268785956462 8.74508961182749 17.7151827888739 52.4023530514905 56.0027758141966 13.1463384265633 227.255483703822
-0.0238500005230308 0.0600499968752265 0.00564999974519014 16 -0.151703120867411 0.286548859530982 0.395203257216296 0.511184604906866 41.4867444848103 1.57008939817885 1.08799760101718 18.1809212952098 -7.33034685181373 -1.84610717660744 -40.1334350970268 -0.215365172023641 1.88986279581296 1.6307420045838 41.221432698044 16.6108318970309 44.4723011488759 56.3366645100212 -224.839499558889
-0.0210500004813075 0.0600499968752265 0.00564999974519014 16 -0.0282217196623484 0.28824059908174 0.242303018801225 0.377610727257433 39.9139703625929 6.89603029157198 0.311822285811884 -6.91520764641346 -7.02347402780071 -1.70089521001543 -55.0968827963451 -5.01114992956086 -1.61580398297824 -3.31025471954543 55.408705082157 -13.8112379379854 57.1999360014447 31.2248053290038 -277.134852742983
-0.0182500004395843 0.0600499968752265 0.00564999974519014 16 0.076852918068568 0.248471654112218 0.0722547613359832 0.269935704286476 31.5710069351946 9.71586676767429 -0.768163457656104 -19.9994194855726 -6.29247855940276 -1.75085944832765 -53.2435491315419 -8.85968911445218 -4.05888271922118 -7.10882966612453 52.4753856738858 -29.7152862532469 60.7223171326444 1.90441019398701 -163.362590271711
-0.015450000397861 0.0600499968752265 0.00564999974519014 16 0.149522491296132 0.177719838244763 -0.0650294845861693 0.241184887948415 20.1563107896779 10.7327472297532 -1.44163262730012 -25.361348275747 -5.28528257734632 -1.7527974857529 -36.9053011795597 -11.8244036657393 -4.60741041065401 -10.0716061799864 35.4636685522595 -36.0940955055002 51.5935341742493 41.4681054129112 23.2185406898158
-0.0126500003561378 0.0600499968752265 0.00564999974519014 16 0.189620280265808 0.108673849990616 -0.138070033340482 0.258513424151451 10.5839718270893 10.7359396970546 -1.50071878174343 -27.1236864861158 -3.96866944396102 -1.75081722011682 -15.2834636329398 -12.9288177099549 -3.55131120199718 -11.1780004898381 13.7827448511964 -37.8596261831704 41.8122355933452 -189.688436441789 180.128801826653
-0.0098500003144145 0.0600499968752265 0.00564999974519014 16 0.208408243656159 0.0286799350101501 -0.146567716277593 0.256395456572187 3.68060359282832 10.3197559950502 -1.19257794601284 -29.4595447405101 -2.43208676301975 -1.97791390635718 2.05721855410661 -11.5461052109086 -1.85171843108255 -9.56819130455143 -3.24979650011945 -39.7793007355603 41.0427122537343 -272.764021950246 272.36805596085
-0.00705000027269125 0.0600499968752265 0.00564999974519014 16 0.210048573811849 -0.0540647562480687 -0.118324311285784 0.247070928823708 -0.874753590824716 10.0584312957239 -0.902505016313235 -28.3852106950234 -0.778802950910028 -2.3698834614314 7.68142001427962 -8.93940389373376 -0.978336989620338 -6.56952043230236 -8.58392503059286 -38.4436419907473 39.9343959157269 -273.873671966606 273.556862450081
-0.004250000230968 0.0600499968752265 0.00564999974519014 16 0.203687138557434 -0.127612384292928 -0.0981934799036632 0.259644623541933 -6.4868686276439 10.0028069056744 -0.905469625941209 -24.5284854725607 0.824576833103238 -2.51968678298402 3.45499912889148 -7.3730591377443 -1.69521127645879 -4.85337235476028 -4.36046875483268 -34.5312923782351 35.1422689120521 -199.115668675004 234.15416029096
-0.00145000018924474 0.0600499968752265 0.00564999974519014 16 0.17315908352534 -0.188515447591587 -0.101092993795173 0.275212528026002 -15.5074001516852 9.54685699574246 -1.3273490247218 -19.5881106534674 2.32920404790416 -2.12376406133441 -0.314184436878628 -8.00982147774384 -3.11872922124531 -5.88605741640943 -1.01316458784317 -29.1349676492099 29.7408559781294 -36.2831783412652 174.556213893811
0.0013499998524785 0.0600499968752265 0.00564999974519014 16 0.113955719470978 -0.233103771658886 -0.105890681375749 0.280242949534804 -25.7105516883357 7.60304437530612 -2.01705850848255 -17.5518188483224 3.83098546374636 -1.31917741499366 6.12582481404425 -9.44945276001197 -3.5472255126808 -8.13027534501831 -8.1428833225268 -25.1548632236285 27.6617980216319 20.2221199680562 112.452905704053
0.00414999989420176 0.0600499968752265 0.00564999974519014 16 0.0221814274787904 -0.282566001786424 -0.0683017511925815 0.291548778605803 -32.9401870154124 3.26368277611903 -2.56882686893237 -17.9808327408136 5.35380732805942 -0.900953244751146 21.4270863184581 -8.32824548484165 -1.81785106403828 -7.42729224009051 -23.9959131873905 -21.2445155169327 32.8982972092126 9.74116736997544 -19.9846355815372
0.006949999935925 0.0600499968752265 0.00564999974519014 16 -0.081638427178065 -0.331090094127382 0.0262076590489596 0.342012170272073 -31.3444573314651 -3.43333475260977 -2.46211646210738 -15.1073237172824 6.83998420407775 -1.50537579866592 32.4302859548901 -1.98470803336224 1.49598853671752 -0.479332234696324 -34.8924024169975 -11.6739889646726 36.7966238148041 60.9871765171175 -226.063093987413
0.00974999997764826 0.0600499968752265 0.00564999974519014 16 -0.166563645998637 -0.36673548684145 0.138057277459496 0.425791236801232 -23.2431120269396 -11.2827869845724 -1.4482911637751 -2.64413512129778 7.79522318658759 -3.09148214514701 30.3687073866428 8.96621531076206 4.22268540178378 12.0576974559091 -31.8169985504179 8.63865186327463 35.1046403016808 89.0130770358127 -204.548408721304
0.0125500000193715 0.0600499968752265 0.00564999974519014 16 -0.223970040082931 -0.34844104723787 0.2240821357669 0.470942189472157 -12.0461630697663 -18.1881256884402 -0.0855028261772309 22.031211338657 7.52544317492232 -4.76227458593935 17.0751310574279 20.7796939244549 4.60275585487179 25.5419685103943 -17.1606338836051 40.2193370270972 50.640641599138 -393.860897780437 389.664535517267
0.0153500000610948 0.0600499968752265 0.00564999974519014 16 -0.242679795821508 -0.247489440097318 0.25293851351249 0.429094858833756 0.388060827628677 -22.1150965992772 0.728126639914915 52.2021763622075 5.37055811470133 -5.30792698153855 -1.55874142109799 28.6989091023093 2.11497441040585 34.0068360838479 2.2868680610129 74.3172729614847 81.7603310071211 -1290.92769019656 1322.18628299016
0.018150000102818 0.0600499968752265 0.00564999974519014 16 -0.224970579346021 -0.0615325609687716 0.216929118182161 0.318521992876394 14.0443907721971 -22.1541347494886 0.493749507574287 71.1866852330575 1.36491289564461 -4.33042422175725 -18.0499413258544 30.2800095557646 -2.15861863742376 34.6104337775219 18.5436908334287 93.340819982546 101.263316511993 -1586.9047731096 1703.02341346861
0.0209500001445413 0.0600499968752265 0.00564999974519014 16 -0.161852550109227 0.145422411350301 0.139381128041229 0.258400898902928 27.1850511165227 -18.8082805678197 -0.429014937975116 67.7456410168578 -3.24949031756186 -2.38762969576852 -29.5736107023536 25.8802001116073 -6.30507875447372 28.2678298073758 29.1445957643785 86.5539215846775 95.6036558190862 -684.146714327067 1084.03068079408
0.0237500001862645 0.0600499968752265 0.00564999974519014 16 -0.0655888779958089 0.313397941267273 0.0302371614581595 0.321612276569725 33.6323544890386 -13.0557543884874 -1.11396341802117 42.3924567239012 -6.68262320730733 -0.555322091699191 -35.1655516015061 16.9271744980207 -8.75829230027508 17.4824965897199 34.0515881834849 55.4482111123886 67.3769430917672 114.449142443439 62.9064221979144
0.0265500002279878 0.0600499968752265 0.00564999974519014 16 0.0385637444257736 0.381031841042131 -0.0806793665437605 0.391384192907679 31.3895661890327 -5.92093610266395 -1.16210708229961 12.5376578683586 -7.68765887347226 0.464036113753323 -34.5168871827892 5.42121514424909 -8.3830963114283 4.95717903049577 33.3547801004896 18.4585939710225 38.4426152970824 45.7025754721965 -408.400936384253
0.029350000269711 0.0600499968752265 0.00564999974519014 16 0.124716077248255 0.385367983725155 -0.182484478799549 0.444255745947452 22.7232697310667 1.35199045965229 -0.823628641809598 -6.02348394987209 -6.50737888966642 0.722227549460605 -29.9930700101708 -6.33147712684683 -5.51039840936318 -7.05370467630743 29.1694413683612 -7.37547440952438 30.903214754591 25.8753882806652 -249.211636323291
0.0321500003114343 0.0600499968752265 0.00564999974519014 16 0.179717710812886 0.350993601166798 -0.262561509275887 0.47374413958707 12.0101082285631 7.07716843772933 -0.577677091815717 -9.04261076906602 -4.54026888015059 0.670445432354467 -18.8207681534649 -15.4747327500922 -1.8410701449567 -16.1451781824466 18.2430910616492 -16.1197792067954 29.2117173699597 2.68203856926044 -4.78290204329132
0.0349500003531575 0.0600499968752265 0.00564999974519014 16 0.200261152187983 0.338350911424495 -0.293951820206518 0.490910929742016 6.52004283002064 9.72769649582762 -0.563678405072377 -5.24788652571303 -3.25624909520319 0.677468729307177 -10.7948102380522 -19.6344267217548 0.344645190015635 -20.311895451062 10.2311318329798 -14.9755830215407 27.2308142043851 -9.06933421798482 38.1607233164647
-0.0350500006899238 0.0572499968335032 0.00564999974519014 16 -0.355889766216278 -0.219871093085482 0.410431547264646 0.586050235271801 0.596486945573606 -46.39817313706 -2.67941653283739 30.3590063507586 -0.513886576271287 -5.45134319324077 10.3372353836256 41.6612907862792 8.97573664499065 47.11263397952 -13.016651916463 76.7571794878185 90.9983412515183 -1645.32809913603 1663.84505879911
-0.0322500006482005 0.0572499968335032 0.00564999974519014 16 -0.350927961270014 -0.137375508478387 0.435290461932309 0.575760584427301 4.89191207841027 -41.299312386873 -2.13555265583695 48.0825951617568 -3.00740173636827 -5.15429225657215 11.9551046244279 36.6152615175757 8.71990046315669 41.7695537741479 -14.0906572802648 89.3819075486298 99.6612645018772 -2181.186185227 2201.75543002648
-0.0294500006064773 0.0572499968335032 0.00564999974519014 16 -0.319410548607508 0.0441830648347968 0.468003796384049 0.568333348669447 14.1596331885985 -30.5660935826803 -1.02574826419302 61.8925921030905 -7.25795115575937 -4.22998194900552 8.78753817133063 26.7332741317057 7.93000807316894 30.9632560807112 -9.81328643552366 92.4586856857708 97.9981243520787 -1888.81437736301 1965.87029951097
-0.026650000564754 0.0572499968335032 0.00564999974519014 16 -0.25758764108022 0.205155654399823 0.470670623209638 0.574431084571545 25.8385251550383 -16.7139149189997 -0.0395492422931462 47.0082650919796 -10.2721566232094 -2.99416921999795 -9.73834151062753 15.0335447020147 6.01719276382778 18.0277139220127 9.69879226833439 63.7221800109793 66.9296740322996 -246.021309309966 658.568438806937
-0.0238500005230308 0.0572499968335032 0.00564999974519014 16 -0.158619354565938 0.307408313756071 0.39711840102517 0.526652632616655 34.3206911422422 -3.41330638597922 0.225057298777948 17.8092986150079 -10.7434158060913 -2.00171518046932 -34.495004386469 4.48350340917795 3.00931671505028 6.48521858964728 34.720061685247 21.2226050009872 41.2060639543598 72.7155209490251 -220.243324892314
-0.0210500004813075 0.0572499968335032 0.00564999974519014 16 -0.0504659084479013 0.308291651751351 0.259700181634786 0.406244673560392 35.0015093634301 6.88989432462072 -0.265859214263963 -7.93066467472452 -9.45862703891608 -1.51463912779167 -50.3126238942244 -4.3405912843214 -0.364012523141086 -2.82595215652973 50.0467646799605 -14.8205589993452 52.2715374709354 62.5212866124155 -305.673214431263
-0.0182500004395843 0.0572499968335032 0.00564999974519014 16 0.0483424949645996 0.266962061691253 0.0983477357806017 0.288579306837857 29.0707382639115 13.3626785030325 -0.991819314070946 -20.8555797897117 -7.83067486259856 -1.32560893008041 -49.2666161821928 -11.8189367408274 -2.81777370594792 -10.493327810747 48.2747968681219 -34.2182582927443 60.0953836978448 -3.58025083048229 -73.3376533571354
-0.015450000397861 0.0572499968335032 0.00564999974519014 16 0.118823538223902 0.193208494295056 -0.02844892034928 0.228599861270407 19.1061022372273 16.5741955727399 -1.36546703415625 -26.1444384711018 -6.52715635712346 -1.24279126736563 -33.9198098466702 -17.7931228393036 -3.51989766527578 -16.5503315719379 32.5543428125139 -42.7186340438417 56.20124914686 -27.9525926015424 195.908397612603
-0.0126500003561378 0.0572499968335032 0.00564999974519014 16 0.159505997896194 0.120599733299459 -0.0988327841375334 0.22305689466398 10.2868809117983 17.9204308847144 -1.27386951783495 -28.1511985126838 -5.15542517966245 -1.27481093539504 -14.5214663634074 -21.1724734269869 -2.68756065187131 -19.8976624915918 13.2475968455725 -46.0716293973982 51.9038614184275 -450.365447680594 392.167909874348
-0.0098500003144145 0.0572499968335032 0.00564999974519014 16 0.180128796895345 0.0355198192363605 -0.112485298297058 0.215316008142744 3.54329012376277 18.493563169739 -0.940617000238561 -30.6516661341907 -3.44798598639433 -1.58343743208723 0.896607458545702 -21.2347637673071 -1.21568804550306 -19.6513263352199 -1.83722445878426 -49.1452293039296 52.9603963710723 -526.090747417756 521.74489352482
-0.00705000027269125 0.0572499968335032 0.00564999974519014 16 0.182668695449829 -0.0512963543913793 -0.0943768682338608 0.211910739531577 -0.994860117710735 18.8380913987993 -0.668175189245547 -29.7828331272815 -1.40933676449223 -2.06974373805259 5.96755726836172 -19.2291903648866 -0.442009615325667 -17.159446626834 -6.63573245760726 -48.6209245260808 51.9853234630598 -527.872438128958 527.704381006978
-0.004250000230968 0.0572499968335032 0.00564999974519014 16 0.1759388200442 -0.130704206869317 -0.0797901283809915 0.233247771005293 -6.15147002454252 18.6413407859338 -0.611690848465837 -25.8608769466437 0.786217213844432 -2.31188743613212 2.91138139776563 -17.493824806506 -1.05548475018842 -15.1819373703739 -3.52307224623147 -44.5022177325775 47.1524192750261 -443.52038877916 444.245082661687
-0.00145000018924474 0.0572499968335032 0.00564999974519014 16 0.146371404329936 -0.194214213080704 -0.079220293618079 0.255772562033165 -14.0621275452598 17.0126528797175 -0.893870248843328 -21.0675220361736 3.09647766569988 -1.96848470616631 0.125650738156163 -17.1777881370818 -2.27897736018678 -15.2093034309154 -1.01952098699949 -38.0801749158911 41.0178260701545 -249.442661375901 306.159945599325
0.0013499998524785 0.0572499968335032 0.00564999974519014 16 0.0912491595745086 -0.244626682173888 -0.0771926486409211 0.272263342664155 -22.1239457778967 12.6287119029985 -1.45753574647488 -18.966508347355 5.48998474215792 -1.12936251161222 5.42551177089481 -16.4374331748777 -2.62170034670973 -15.3080706632655 -6.88304751736969 -31.5952202503536 35.7766867278994 -20.3215954148079 151.015762916296
0.00414999989420176 0.0572499968335032 0.00564999974519014 16 0.0122928675015768 -0.296147309008908 -0.0391694543634852 0.298979245734152 -26.7669161843601 4.315289027903 -1.97691756592245 -19.2571360025093 7.67337021478186 -0.584224238536533 16.503895295636 -11.1876648672963 -1.21726441612782 -10.6034406287597 -18.4808128615584 -23.5724250304123 31.774716662875 -6.12117490169588 -72.959720075709
0.006949999935925 0.0572499968335032 0.00564999974519014 16 -0.0730409288406373 -0.350884277735216 0.0352352540869227 0.360133692922833 -23.2079381656315 -7.76216179273993 -1.92760639568189 -15.9713463690438 9.31830383623277 -1.08943317455042 22.5750865188792 1.47621310771029 1.24116204830019 2.56564628226071 -24.5026929145611 -8.20918457630385 25.9683502040231 159.643112812198 -312.345964109572
0.00974999997764826 0.0572499968335032 0.00564999974519014 16 -0.133525488376617 -0.388228667884541 0.113406776511498 0.425924466980178 -15.2768128596035 -21.2484960485888 -0.956787207940846 -2.58078042471307 9.80055879723948 -2.74637639427046 18.2068931376233 19.8429190113659 2.87156955717435 22.5892954056363 -19.1636803455642 18.6677156238757 35.0143758751167 108.017808445003 -148.368202957936
0.0125500000193715 0.0572499968335032 0.00564999974519014 16 -0.170785535573959 -0.37175094680589 0.159754121674535 0.439189987368066 -6.71205356886004 -32.2471251488751 0.434634845790893 23.3333755319755 8.52496657789135 -4.67075326029106 7.22211789081524 37.9199202224337 2.44868200120205 42.5906734827248 -6.78748304502435 55.5805006808506 70.3507459074358 -843.62667151936 873.629102949877
0.0153500000610948 0.0572499968335032 0.00564999974519014 16 -0.176481957038244 -0.264162176391886 0.164689770257489 0.357841105832757 1.61743640913885 -37.5016199276792 1.28906317617899 55.0655953046849 5.07767846216913 -5.49983546799324 -5.22555426065796 48.8000078359881 -0.04853318758506 54.2998433039814 6.51461743683695 92.5672152323641 107.515592167183 -2330.51655727919 2348.0649964676
0.018150000102818 0.0572499968335032 0.00564999974519014 16 -0.160339159170787 -0.0671168792887086 0.12582688817353 0.214582681585639 11.4166587072588 -36.090250727514 1.01606187094017 74.8782760248847 -0.142116199116526 -4.6702278897639 -15.2904928575098 49.1803387227184 -3.56360362427001 53.8505666124823 16.30655472845 110.968526752399 124.417849126221 -2936.76155825001 2905.79473940727
0.0209500001445413 0.0572499968335032 0.00564999974519014 16 -0.106741579771042 0.155444017419747 0.0627476919639412 0.198730672646197 21.9753925533167 -29.3681448265926 -0.0219922509492608 71.0512221772168 -5.60115374690059 -2.71366563238082 -21.7336613418892 40.0475440419619 -6.65204129479107 42.7612096743428 21.71166909094 100.419367003809 111.283273212884 -1977.61696003907 1962.83058974989
0.0237500001862645 0.0572499968335032 0.00564999974519014 16 -0.0281777584552765 0.333414634326473 -0.0182483891413237 0.335100444883132 26.8721250272119 -19.315765528004 -0.827507578100723 44.0369998365023 -9.40690038994557 -0.823759812348159 -24.3550119437591 24.3813968949461 -8.21771372968531 25.2051567072943 23.5275043656584 63.3527653645063 72.1277773513473 -289.666081196295 454.231201690555
0.0265500002279878 0.0572499968335032 0.00564999974519014 16 0.0555620340506235 0.40467455503686 -0.094766063137237 0.419319975489666 24.2137038044363 -7.75794644352211 -0.962904143389508 12.164661056745 -10.3434348022114 0.186023162985212 -23.0198605485324 5.90915038753282 -7.35603955817165 5.72312722454761 22.0569564051429 19.9226075002671 30.2683630329826 53.4229056496196 -281.375483050343
0.029350000269711 0.0572499968335032 0.00564999974519014 16 0.119905202786128 0.403267903382269 -0.161633158237479 0.450696724411589 16.2831334247387 3.43374339329679 -0.69659274541306 -7.56986118379043 -8.81748741794812 0.363651102268608 -20.0183386980992 -11.6450434684303 -4.39849832275865 -12.0086945706989 19.3217459526861 -11.0036045770872 25.2708908754989 65.5781595571416 -160.130891327625
0.0321500003114343 0.0572499968335032 0.00564999974519014 16 0.157447845141093 0.363287548400306 -0.213766808069971 0.449959903763327 7.97786691297479 11.997728355854 -0.486465367734579 -10.4730593289757 -6.49636496062538 0.202779455084573 -12.9080819575505 -24.4847091020012 -0.953105630702107 -24.6874885570857 12.4216165898159 -22.4707876848297 35.618884726186 -89.3880012127463 71.0994190905112
0.0349500003531575 0.0572499968335032 0.00564999974519014 16 0.170896724859873 0.345075179600778 -0.234909461221929 0.451070975696638 4.12404274424514 15.9451270140014 -0.46415989379038 -6.49877262034638 -5.07696096415372 0.123614444006429 -7.52256729643396 -30.1015782879008 0.983672061185148 -30.2251927319072 7.05840740264358 -22.4438996343478 38.30289834385 -81.6634872686769 81.9781076364167
-0.0350500006899238 0.05444999679178 0.00564999974519014 16 -0.163246268033981 -0.227978645387727 0.234495662610667 0.365529509838893 -5.07322266707037 -69.1752866403979 -3.44049353051964 32.4936569730956 -5.31225034683549 -5.88185885579519 16.7912397373291 69.9242380762986 9.34954860714079 75.8060969320938 -20.2317332678487 101.668943613494 128.422978701567 -2552.60324225321 2646.6634298792
-0.0322500006482005 0.05444999679178 0.00564999974519014 16 -0.180782957871755 -0.134021970701664 0.284695399719446 0.362899210675683 -3.5335855948509 -63.9587465131091 -3.12966538275781 51.5299978302543 -6.97768806268166 -5.70949972133173 20.5443456442941 64.229691540568 9.32078314477262 69.9391912618997 -23.674011027052 115.488744343363 137.075159465471 -3643.07491952761 3653.49335805918
-0.0294500006064773 0.05444999679178 0.00564999974519014 16 -0.188161657651265 0.0717917635084207 0.354581214721935 0.407782668282266 -0.309290241512676 -51.7975442139295 -2.36627970444881 65.30942857308 -9.5913777817776 -4.80681733727576 22.4701858055809 51.8397902723215 8.9149866796078 56.6466076095972 -24.8364655100297 117.106972787009 132.437650417258 -3630.10268858755 3599.92535737297
-0.026650000564754 0.05444999679178 0.00564999974519014 16 -0.185235083897908 0.245598850599102 0.409655902072166 0.512297559846644 8.64768531000704 -33.9899596024677 -1.63191742537257 47.9186374280693 -10.9043811204069 -3.35644128811761 5.2961350820156 34.822395475119 7.48368521660787 38.1788367632366 -6.92805250738817 81.908597030537 90.6346498622348 -1641.64548017757 1643.08867393236
-0.0238500005230308 0.05444999679178 0.00564999974519014 16 -0.138242273728053 0.349721351588766 0.372408193773202 0.529248346990327 18.5913758509082 -14.3704129991228 -1.24420512032771 16.8451853373709 -10.3793809959776 -1.90167625675498 -20.557910020705 16.4008658095486 4.92035291251022 18.3025420663036 19.3137049003773 31.2155983364937 41.017262494869 5.30274860421259 95.1220901400176
-0.0210500004813075 0.05444999679178 0.00564999974519014 16 -0.0756895152727763 0.341513521448748 0.2749505987127 0.444924959725822 22.9645619383484 3.09264900669293 -1.24611143117267 -9.59018385390977 -9.04053730633054 -0.889838219800124 -37.7363634031808 -1.28839435375968 1.87686734170252 -0.398556133959553 36.4902519720081 -12.6828328606027 38.6335551734828 62.2935111078655 -199.989535606224
-0.0182500004395843 0.05444999679178 0.00564999974519014 16 -0.00284635424613944 0.292881952445411 0.141225621337071 0.325165520808668 21.8767685541945 15.8507819630799 -1.32334817535087 -22.0185562883631 -7.84599380481145 -0.354557288143901 -38.9044844069614 -16.7484411635288 -0.515194442039161 -16.3938838753849 37.5811362316105 -37.8693382514429 55.8138693209911 -15.4939222446707 112.715306822258
-0.015450000397861 0.05444999679178 0.00564999974519014 16 0.0544890868663788 0.216020671272806 0.0430358597146308 0.226905434545016 15.3803588925461 23.5589779477707 -1.15979530317746 -27.1693983063789 -6.96157597635807 -0.167347498801069 -26.5335927392548 -28.5226039476994 -1.44244533481075 -28.3552564488983 25.3737974360773 -50.7283762541496 63.4130769005293 -426.700872130617 485.321361772472
-0.0126500003561378 0.05444999679178 0.00564999974519014 16 0.0891390085220336 0.140020658327576 -0.0124041198917985 0.166449421113649 8.65870061481326 27.5666662774625 -0.841796048569026 -29.5904914382835 -5.86905439294225 -0.285707746816798 -12.0897880056294 -34.9611488252095 -0.977311775242824 -34.6754410783927 11.2479919570604 -57.157157715746 67.7926560564626 -767.977522195577 742.000656655182
-0.0098500003144145 0.05444999679178 0.00564999974519014 16 0.10568377494812 0.0491212327048803 -0.0216926139794911 0.118543347729829 2.81744885480138 29.3475555583844 -0.537790279094944 -32.2268324387178 -4.56203435608354 -0.731815821289026 -1.06775094980565 -35.3661784343159 0.158956320931291 -34.6343626130269 0.529960670710702 -61.5743879971022 70.6486035894611 -902.12962163669 906.192389103007
-0.00705000027269125 0.05444999679178 0.00564999974519014 16 0.104466768900553 -0.043924878268978 -0.00993909190680523 0.113760653494071 -1.11233203655271 29.8463405171274 -0.357275637130805 -31.804730678188 -3.00361972255204 -1.35384740513624 2.21451064078265 -31.654346800806 0.825150454480404 -30.3004993956698 -2.57178627791345 -61.6510711953154 68.7429191103789 -900.238711263019 907.135600277663
-0.004250000230968 0.05444999679178 0.00564999974519014 16 0.0978566821416218 -0.132657055470239 -0.00126888179588908 0.164849733596425 -4.94661675638697 28.9557097806794 -0.221511416739137 -28.0063423714745 -1.03181072515147 -1.74310157464488 0.7371001837143 -27.4623845175562 0.405435069255845 -25.7192829429113 -0.958611600453437 -56.9620521521539 62.5066063443117 -762.046687441172 765.917180199113
-0.00145000018924474 0.05444999679178 0.00564999974519014 16 0.075644694964091 -0.203154946698147 -0.00194486675085501 0.216789840054409 -10.2423181384172 25.5597350118975 -0.223922681806784 -23.6498386137082 1.3857108253585 -1.52475839609814 -0.550134854974899 -24.9283543797981 -0.489834156165011 -23.4035959836999 0.326212173168115 -49.2095736256057 54.4923559388295 -564.909795637948 556.496080375442
0.0013499998524785 0.05444999679178 0.00564999974519014 16 0.038275097211202 -0.26587224571238 -0.00454663407193343 0.268651644305512 -13.9406329634029 17.9405537672802 -0.478395510964223 -21.2382922727417 3.84630425182173 -0.698251249496713 2.34910346578991 -21.9165154437661 -0.769083913788887 -21.2182641942694 -2.82749897675413 -39.1788460400219 44.6451728959481 -309.875200551129 320.990760696286
0.00414999989420176 0.05444999679178 0.00564999974519014 16 -0.00551370978355403 -0.322918074758103 0.0101702517859909 0.323125235818014 -13.5954923498451 4.89923999336689 -0.836499182548911 -20.8300654176615 5.50763211973658 0.0122653628200366 5.48151149193498 -13.0674916425417 -0.125987701267245 -13.0797570053617 -6.31801067448389 -25.7293054110284 29.5464796403256 -30.5080142349087 32.9370475358577
0.006949999935925 0.05444999679178 0.00564999974519014 16 -0.0401688710848491 -0.385759772539604 0.0256828162182743 0.38869492839879 -6.71130358514991 -12.6913676009868 -0.82730735705477 -16.5530259184913 6.01730746288537 -0.283155383356575 2.62307535169308 5.2430253533389 0.613486974709811 5.52618073669547 -3.45038270874785 -3.86165831750447 7.57338889352724 242.878361714268 -247.235591179919
0.00974999997764826 0.05444999679178 0.00564999974519014 16 -0.0412140067418416 -0.420859301971893 0.0235568733183512 0.42352812502657 0.20375716240712 -31.1822379476303 0.00840753659140487 -1.83996440735085 5.37591603396397 -1.92532269666618 -5.22649101974864 30.2617147742414 0.24678583258662 32.1870374709076 5.23489855634005 29.3422735402794 43.8677394056425 31.8652547537803 3.40566593594082
0.0125500000193715 0.05444999679178 0.00564999974519014 16 -0.0338268315792083 -0.400713383423475 -0.00826373052919128 0.402223519242269 3.21109934049484 -45.5873317787094 1.29169477442505 25.396075892982 3.84799187494339 -4.14159244150735 -10.9474963836409 53.7877119950017 -1.35863034314798 57.9293044365091 12.239191158066 70.9834076716913 92.4350922398358 -1311.44805351684 1397.41253157843
0.0153500000610948 0.05444999679178 0.00564999974519014 16 -0.0194781784216562 -0.278079653863485 -0.0435612807774063 0.282144074030325 3.51367644933442 -52.1522299494557 2.09954784981517 58.754806199585 1.54336873475899 -5.40676972709121 -11.1679661777345 67.01965057298 -3.4712623325541 72.4264203000712 13.2675140275497 110.907036149041 133.123942073988 -3445.62173826854 3437.87022868435
0.018150000102818 0.05444999679178 0.00564999974519014 16 -0.0147857491175334 -0.0632926708079564 -0.0761540367846222 0.100120017347005 5.89930941503754 -49.9424898975953 1.80395423806633 79.2977968863743 -1.34556836034508 -4.90294728117305 -8.6627758926587 65.9540146384751 -5.36657426999051 70.8569619196482 10.466730130725 129.24028678397 147.761000335388 -4278.34804619538 4266.94981426537
0.0209500001445413 0.05444999679178 0.00564999974519014 16 0.00916744073232012 0.179330340988624 -0.0952731294751478 0.20327415568307 11.2653806546096 -40.4372346075882 0.746356374327988 74.9375712126924 -4.19240070952622 -3.06261441942469 -5.37130202431428 52.0967330368055 -6.55434012875005 55.1593474562302 6.11765839864226 115.374805820281 128.02861076395 -3128.31974644181 3100.24155322485
0.0237500001862645 0.05444999679178 0.00564999974519014 16 0.0450364796320597 0.369218371051247 -0.107619870999867 0.387211217106908 12.9920101488638 -25.8994871291216 -0.0893292935292592 45.9342072387876 -6.1702105042421 -1.19901603696264 -2.46287579486295 29.5083847173502 -6.74706126069454 30.7074007543128 2.37354650133369 71.8336943679092 78.1579031872155 -1124.19633507284 1098.64289111136