TITLE="DynamicStudio Exported Data"
VARIABLES= "X (m)[m]" "Y (m)[m]" "Z (m)[m]" "Status[-]" "U[m/s]" "V[m/s]" "W[m/s]" "Length[m/s]" "dU/dX[1/s]" "dU/dY[1/s]" "dU/dZ[1/s]" "dV/dX[1/s]" "dV/dY[1/s]" "dV/dZ[1/s]" "dW/dX[1/s]" "dW/dY[1/s]" "dW/dZ[1/s]" "Vorticity X[1/s]" "Vorticity Y[1/s]" "Vorticity Z[1/s]" "Vorticity Magnitude[1/s]" "Lambda-2[1/s²]" "Q-Criterion[1/s²]"
ZONE T="DynamicStudio Data" I=26 J=26 F=POINT
-0.0350500006899238 0.0600499968752265 0.00564999974519014 16 0.217966903646787 -0.147747064649981 -0.224105870209169 0.345777684734371 0.639264820049274 8.95096894675044 -2.7305675470579 -6.35605842778999 -2.41155023676891 1.14807600472292 -12.2241287652558 -4.65511202560629 8.58567653149527 -5.80318803032921 9.49356121819791 -15.3070273745404 18.9237888110166 -29.9522951578732 12.1006061917219
-0.0322500006482005 0.0600499968752265 0.00564999974519014 16 0.221203118761381 -0.164436796788747 -0.262455947914471 0.380596117273402 -0.125716128065454 9.556969000449 -2.13727645111265 -10.7515754838617 -1.92278286429433 1.2589199192141 -18.7567962790932 -6.01676497022956 6.30904866964705 -7.27568488944365 16.6195198279806 -20.3085444843107 27.2319850358792 -63.2471394240642 57.5562848641712
-0.0294500006064773 0.0600499968752265 0.00564999974519014 16 0.221046256224314 -0.206611152719124 -0.34060366555738 0.455588051653941 -5.43618693967981 10.1594889767 -1.26665067109821 -17.2621079996608 -1.00604523635697 1.1211007402876 -18.8095664174285 -7.7309913450449 3.01446651593769 -8.8520920853325 17.5429157463303 -27.4215969763608 33.7351064605406 -130.557381434808 146.265422923595
-0.026650000564754 0.0600499968752265 0.00564999974519014 16 0.192635322411855 -0.26002679545704 -0.375384695492685 0.495616758601353 -14.2523211072292 9.63040851489044 -0.835177443657538 -19.44415623252 0.215978814935887 0.588743302245447 -2.20117155184455 -8.15039708083373 1.84372944922643 -8.73914038307918 1.36599410818701 -29.0745647474104 30.3902752503186 -68.9340545026515 161.257873542232
-0.0238500005230308 0.0600499968752265 0.00564999974519014 16 0.138795016606649 -0.314656549042168 -0.350659509884038 0.491156688198461 -23.9855981509144 6.7688525606626 -1.06083141271261 -15.9114599707341 1.65260073144023 -0.105637383518964 25.2913558348655 -6.12359433923468 3.84140531663235 -6.01795695571572 -26.3521872475781 -22.6803125313967 35.2852682457438 10.1371227763319 8.45659875103615
-0.0210500004813075 0.0600499968752265 0.00564999974519014 16 0.0488866635163625 -0.347676140620485 -0.220217066473948 0.414444400363799 -30.6678242629625 0.930602397088961 -1.67410155954141 -2.14538445487356 2.88790945973958 -0.636076873421598 45.1420738471174 -0.640472443700493 7.82996013370845 -0.00439557027889503 -46.8161754066588 -3.07598685196252 46.9171183486532 7.75649602505477 -228.91999879042
-0.0182500004395843 0.0600499968752265 0.00564999974519014 16 -0.0478942390282948 -0.325563930814387 -0.0756238706134415 0.33764582181033 -34.2334967701735 -7.11206753621493 -1.93490307437547 21.6751845624041 2.8319506689222 -1.01974196801094 50.445119852636 8.68167363904507 11.0967995060776 9.70141560705601 -52.3800229270115 28.787252098619 60.5515495260404 54.5770665009703 -184.789374424124
-0.015450000397861 0.0600499968752265 0.00564999974519014 16 -0.158864549795787 -0.228681542651805 0.0870018309044341 0.291723347903714 -33.5947289550901 -15.4067487185377 -1.42864378198637 49.7623832630731 0.236864826619715 -1.44686467685457 43.1520496105121 20.5643111246666 11.8530915316538 22.0111758015212 -44.5806933924984 65.1691319816108 81.9691761990935 34.6866667131238 454.727990831373
-0.0126500003561378 0.0600499968752265 0.00564999974519014 16 -0.24875864982605 -0.0551616159174349 0.18815141782281 0.316740628531667 -24.371909542824 -21.4772623675523 -0.367804800430065 68.1446305386477 -5.25304069912409 -1.82418176678787 26.2025878429268 31.4314116960614 10.0358217118493 33.2555934628493 -26.5703926433568 89.6218929062 99.2169539437633 -1050.43513479828 1361.25006862436
-0.0098500003144145 0.0600499968752265 0.00564999974519014 16 -0.30087470293045 0.139889439316466 0.244714022599704 0.41228581706468 -4.5883368273264 -23.8012488045676 0.672646495468851 65.9742230676293 -12.2024007157222 -1.76014064541696 3.18671731645817 36.9735959625929 7.05447464681515 38.7337366080098 -2.51407082098931 89.7754718721969 97.8072505164482 -1441.23374455466 1570.74298503369
-0.00705000027269125 0.0600499968752265 0.00564999974519014 16 -0.273406964937846 0.301982345070768 0.203779509455392 0.455489619733364 18.745607426012 -22.3386475473796 1.17997835213735 45.1402705102078 -18.0103607556551 -0.991509052728537 -21.3800519434638 35.2449629307287 4.86175822668727 36.2364719834572 22.5600302956012 67.4789180575875 79.8463602862956 -721.215937276382 734.505730612555
-0.004250000230968 0.0600499968752265 0.00564999974519014 16 -0.189705066680908 0.386260939505252 0.112367172523712 0.44476050541034 35.2386527465051 -17.8608207770681 1.26988700221387 16.1962381561093 -20.6720861157592 0.0910165761878928 -35.4641483856471 26.9042379965818 4.09496632561821 26.8132214203939 36.7340353878609 34.0570589331774 56.8174397697891 164.129144416459 -336.942027925206
-0.00145000018924474 0.0600499968752265 0.00564999974519014 16 -0.0655373724301656 0.393037177110867 -0.0159948911063839 0.398784661587973 37.9689638910995 -11.6054687279689 1.19286304306644 -5.44557547384573 -19.829417033145 0.927697012932225 -32.201095055324 15.1987308042017 4.23641703421729 14.2710337912694 33.3939580983904 6.15989325412312 36.8342656754658 448.156930000786 -714.94251080818
0.0013499998524785 0.0600499968752265 0.00564999974519014 16 0.0352130961418151 0.361326436547291 -0.0897638102667406 0.373970984865751 30.4343926802435 -4.84080161959158 0.921755554167385 -17.200076647925 -16.6510563258287 1.37261398210702 -17.5442424595767 4.05909515615947 4.47014213989954 2.68648117405245 18.4659980137441 -12.3592750283335 22.3821791380582 338.86020479286 -517.813540824492
0.00414999989420176 0.0600499968752265 0.00564999974519014 16 0.116880571842194 0.304378786907958 -0.133249475534928 0.352225690039855 19.8178795716766 1.35782428782542 0.304819449734214 -21.6455544949413 -12.8710518331742 1.61006179100633 -4.86397310032452 -3.92572400178466 4.18723348749069 -5.535785792791 5.16879255005874 -23.0033787827667 24.2181084354797 107.82246401174 -188.794814014213
0.006949999935925 0.0600499968752265 0.00564999974519014 16 0.155302075942357 0.24735383542565 -0.129074860708788 0.319316417302303 9.37915255368545 6.22690341484573 -0.841757122242571 -24.5779304197898 -9.60869337873239 1.70737925594714 -1.71315093123488 -8.22604749856234 3.65643668636639 -9.93342675450947 0.871393808992307 -30.8048338346356 32.3785435410097 -76.0701763606306 74.686622186029
0.00974999997764826 0.0600499968752265 0.00564999974519014 16 0.174373491605123 0.172068105482807 -0.148896797638542 0.286677177058128 3.82487289624075 9.80175974409002 -2.26897260429715 -27.3448746028825 -7.10352100317034 1.40961908257987 -6.25178308196024 -10.8398467588336 3.31819962130001 -12.2494658414135 3.98281047766308 -37.1466343469725 39.3164677458265 -225.180030669141 231.073547532548
0.0125500000193715 0.0600499968752265 0.00564999974519014 16 0.179831877946854 0.0970139302148848 -0.169425911098563 0.265436143607477 1.09900251837386 12.165776920119 -3.4834003709956 -27.5149941895628 -4.83268743938055 0.771281242216392 -8.82713774296157 -13.2952994384083 3.5883729589395 -14.0665806806247 5.34373737196597 -39.6807711096818 42.4380468094848 -295.029147778826 295.538251772291
0.0153500000610948 0.0600499968752265 0.00564999974519014 16 0.181619921127955 0.0209656759809392 -0.201719219927909 0.272242537102831 1.41159792214536 13.2695266507495 -4.11979933117414 -27.3571264054457 -2.35921158753653 0.208491458218158 -6.3708592223585 -15.9692143781336 4.73943916913 -16.1777058363518 2.25105989118436 -40.6266530561952 43.7871028421576 -340.882403034798 332.277485656177
0.018150000102818 0.0600499968752265 0.00564999974519014 16 0.188114523688952 -0.0523934664670378 -0.207870234702132 0.285205511563632 -0.75254722229454 13.0016527906523 -4.01706607969148 -27.9595118447848 0.303813640476663 0.13203504702795 1.51331132417305 -17.9443294862105 6.37919545603256 -18.0763645332385 -5.53037740386454 -40.9611646354372 45.1127148070152 -358.249598662327 368.877023840631
0.0209500001445413 0.0600499968752265 0.00564999974519014 16 0.175990033547084 -0.129956873866031 -0.191793819280186 0.290940114262396 -6.11742581512297 11.3252516094439 -3.42968301023991 -31.414897393617 2.72731057759203 0.422500535127491 7.26671258050971 -17.9980332261194 7.72331257121563 -18.4205337612469 -10.6963955907496 -42.7401490030609 47.7540498752398 -338.362369265057 345.441276849414
0.0237500001862645 0.0600499968752265 0.00564999974519014 16 0.150678111712138 -0.223810153925636 -0.163111026495074 0.31527779070786 -12.471877767202 8.59822601513062 -2.67862079901518 -33.7591896428724 4.07822269229035 0.474328618027323 12.2934017802224 -15.7222413699943 7.90077249033825 -16.1965699880216 -14.9720225792376 -42.357415658003 47.7560572149222 -211.337783784171 213.476559322624
0.0265500002279878 0.0600499968752265 0.00564999974519014 16 0.101521865725517 -0.318132072684675 -0.116669396117201 0.353732176768512 -15.9384605736038 5.15482720762157 -1.88374192500027 -30.9983929993987 3.71558494535852 -0.0765939718333025 15.5387527470424 -11.4567215353109 6.68492107558692 -11.3801275634776 -17.4224946720427 -36.1532202070203 41.7145772517915 -30.6387102799261 47.2551807800789
0.029350000269711 0.0600499968752265 0.00564999974519014 16 0.0560015777746836 -0.401488786790287 -0.0700126896779208 0.411377198380668 -14.1633858143905 1.489648803868 -1.04882421094371 -22.5032999329281 1.708310576071 -1.09374678106154 18.1230951217939 -6.44057801694178 4.80344370516578 -5.34683123588024 -19.1719193327376 -23.9929487367961 31.1739103137946 11.0747852981622 -38.5371212356327
0.0321500003114343 0.0600499968752265 0.00564999974519014 16 0.0171744139989216 -0.451124044573711 -0.00921332266375732 0.451544847610131 -8.72714447364683 -1.65187844112085 -0.216196214012592 -11.4577312164688 -0.706611717980124 -2.07455508356275 14.3199794414945 -2.06658783652881 3.30777035863257 0.00796724703393892 -14.5361756555071 -9.80585277534794 17.5344008969962 5.83182812195498 -45.1561006941985
0.0349500003531575 0.0600499968752265 0.00564999974519014 16 0.00379542152086887 -0.47117428035941 0.0148487281085302 0.471423474620399 -4.51226112602743 -3.24032503678518 0.300082764871888 -6.26477959464721 -2.1107105191776 -2.60763294011376 8.34222689213679 0.0525732330532896 2.60900018470663 2.66020617316705 -8.04214412726491 -3.02445455786203 8.9944485334027 19.2072366210455 -30.4214462088437
-0.0350500006899238 0.0572499968335032 0.00564999974519014 16 0.193598420619965 -0.141045991829111 -0.214027212758471 0.321219501398595 0.33030963587157 17.7843935975913 -3.0588000911795 -6.91583892525389 -4.24155479616046 0.453845427552937 -11.3079985152504 -13.0841111542013 8.18821325344972 -13.5379565817542 8.24919842407087 -24.7002325228452 29.3500771673905 -87.7347085083167 60.9161227564634
-0.0322500006482005 0.0572499968335032 0.00564999974519014 16 0.194123613437017 -0.159867395690186 -0.245945581640117 0.351753877913098 -0.421719521740996 17.9813820347599 -2.54370077669784 -11.3852181496014 -3.58424108875771 0.662445071155928 -17.7662644338925 -13.9261354345294 5.97167730785895 -14.5885805056853 15.2225636571947 -29.3666001843613 36.1517680322323 -160.657766758993 146.34443660027
-0.0294500006064773 0.0572499968335032 0.00564999974519014 16 0.190887345870336 -0.20349618361739 -0.317686809256362 0.422816253632417 -5.11185735356546 17.7522158502374 -1.69638565741543 -18.3782723667952 -2.14001326519617 0.810292426577035 -18.0719170428717 -15.0829078626818 2.59801617632848 -15.8932002892589 16.3755313854563 -36.1304882170326 42.7336404064958 -292.276722204995 299.9186485184
-0.026650000564754 0.0572499968335032 0.00564999974519014 16 0.16412261168162 -0.260682494790126 -0.351447122666674 0.46733999912899 -12.4414025415484 15.7933278523788 -1.13542053398357 -20.7988390457382 -0.0765074352745722 0.684733467701568 -2.92574780117322 -14.9561790759803 1.0679041952779 -15.6409125436819 1.79032726718965 -36.592166898117 39.8350360263725 -265.094764276457 322.985857449065
-0.0238500005230308 0.0572499968335032 0.00564999974519014 16 0.116591979662577 -0.318037946219362 -0.332308742906219 0.474521786190034 -19.4677209507694 10.4183840712956 -1.14698572415203 -17.368734894957 2.25657632999837 0.324394297977163 21.9050156751169 -11.5208635807695 2.73347542661796 -11.8452578787466 -23.052001399269 -27.7871189662526 37.997748396064 17.547043885748 118.839554506871
-0.0210500004813075 0.0572499968335032 0.00564999974519014 16 0.0454933973153433 -0.356502674077201 -0.216759686617491 0.41970056893695 -23.5421328357395 0.720898831785525 -1.54434689458544 -3.16015178708825 4.31684901033612 -0.127470428629712 38.2680472819521 -3.08820415436703 6.57053824290445 -2.96073372573732 -39.8123941765376 -3.88105061887378 40.1105376200442 16.4308981106882 -166.964660432614
-0.0182500004395843 0.0572499968335032 0.00564999974519014 16 -0.0289491128921509 -0.334400226306946 -0.0994492646275709 0.350073876098095 -25.6756393108658 -12.2817600769772 -1.71139371647771 21.8682395419 5.1572142933274 -0.769980227268304 40.5492090601626 10.5743511756898 9.89669007047595 11.3443314029581 -42.2606027766403 34.1499996188772 55.505629227984 85.4273076744131 10.6389070974641
-0.015450000397861 0.0572499968335032 0.00564999974519014 16 -0.113347758849462 -0.232511228810375 0.0283252414067586 0.260214344838745 -25.9033458616263 -25.7661069023077 -1.25512393716005 51.9657078764641 3.6258633145413 -1.7260315936836 32.4303869943844 27.231045422417 10.8757161418036 28.9570770161006 -33.6855109315444 77.7318147787719 89.529106914103 -901.858901075931 1090.45421611558
-0.0126500003561378 0.0572499968335032 0.00564999974519014 16 -0.186720813512802 -0.0418181143637048 0.0943803769435423 0.213356678920121 -20.0622515513022 -35.7436434376217 -0.380826975265177 72.6583394482862 -1.26120169990701 -2.65013691192852 18.7483411032684 41.7845879210715 9.4838058761122 44.434724833 -19.1291680785336 108.401982885908 118.707033220268 -2531.97837168854 2538.02358535982
-0.0098500003144145 0.0572499968335032 0.00564999974519014 16 -0.231785074869792 0.173571975431405 0.136325143867483 0.320056395714951 -4.67692823054144 -39.1900478802566 0.427950859079068 71.6206533573406 -9.10488756039083 -2.87413533325658 2.26173923653701 48.3164179851405 7.07934331151555 51.1905533183971 -1.83378837745794 110.810701237597 122.077217520817 -2839.49397559156 2889.73354537466
-0.00705000027269125 0.0572499968335032 0.00564999974519014 16 -0.209845652580261 0.354582830212312 0.100049154236137 0.423997658780771 14.6890978667913 -35.5324806702169 0.832565967891975 49.8279254613139 -17.5029861212306 -2.04567507850803 -15.7807702406311 44.2183253728503 5.24205900503017 46.2640004513584 16.6133362085231 85.3604061315308 98.5025868324309 -1555.54454504862 1602.25101241004
-0.004250000230968 0.0572499968335032 0.00564999974519014 16 -0.138178611596425 0.445472302391815 0.03388743290212 0.467640095596684 28.8457869023357 -26.575714190264 0.945778496307019 18.1302255342176 -23.2373866637435 -0.664182414756983 -25.4477593360824 31.3828962651686 4.53143526476202 32.0470786799256 26.3935378323894 44.7059397244816 61.0102871479564 62.7614122251305 -118.150997864343
-0.00145000018924474 0.0572499968335032 0.00564999974519014 16 -0.0335880120595295 0.450407486967742 -0.0568412827023227 0.455220814868953 31.182794375903 -15.481796180598 0.955294643795777 -6.54447092823907 -24.3533682816631 0.517378522505925 -22.3349998292625 15.4022477203358 4.48207965432533 14.8848691978299 23.2902944730582 8.93732525235895 29.0494910513889 692.269960340346 -816.748495223618
0.0013499998524785 0.0572499968335032 0.00564999974519014 16 0.0490135467052459 0.407388944256624 -0.100603222242644 0.422479689439335 24.3971222125777 -4.91324523386159 0.719888417765037 -19.9877015395127 -21.5263015047875 1.18773043398552 -9.95244665992536 1.65756857730365 4.48667580901234 0.469838143318126 10.6723350776904 -15.0744563056511 18.4758955615798 554.89889564465 -605.307939667078
0.00414999989420176 0.0572499968335032 0.00564999974519014 16 0.110687619050344 0.340212740238834 -0.116683454600473 0.376313016263523 15.136833718698 3.73886245097709 0.0651056025942119 -24.5549712633131 -17.0892613423795 1.50526444951853 -0.729879403277812 -7.40671453341304 4.06072440941307 -8.91197898293157 0.794985005872024 -28.2938337142902 29.6748445118703 152.287783296864 -163.601334469596
0.006949999935925 0.0572499968335032 0.00564999974519014 16 0.137052569389343 0.272898476209181 -0.107256384573508 0.323667911794317 6.00497722547357 10.1710572564941 -1.09761705139567 -27.024393835099 -12.8208339768458 1.61516612519507 0.258977351476765 -12.0794953475788 3.42954384612069 -13.6946614727739 -1.35659440287243 -37.1954510915931 39.6596228314753 -158.125511986989 194.29721105036
0.00974999997764826 0.0572499968335032 0.00564999974519014 16 0.145153286457062 0.191805170864391 -0.116554156816176 0.267289303210461 1.23577030337673 14.9427164011552 -2.51403303529912 -29.3775219021617 -9.17678072077813 1.39118340448765 -4.53049617293855 -14.9016441192217 3.17876557623793 -16.2928275237094 2.01646313763942 -44.3202383033169 47.263155581971 -368.162285618357 411.738077655187
0.0125500000193715 0.0572499968335032 0.00564999974519014 16 0.14438427567482 0.110969167484824 -0.132988085971835 0.225492363961331 -0.480982322943143 18.3237981099933 -3.65763639991455 -29.7671947574518 -5.64887737487319 0.894416048868547 -6.98600106049085 -17.6455834841893 3.68310107787162 -18.5399995330578 3.3283646605763 -48.0909928674451 51.6483609514979 -502.79127202526 515.818425629171
0.0153500000610948 0.0572499968335032 0.00564999974519014 16 0.143388634125392 0.0278239556487339 -0.154775442266449 0.212814262757605 0.789387763674427 20.1580765329044 -4.13482903239882 -29.6219124086615 -1.956382754383 0.461375309237377 -4.1747512198859 -20.7915231892241 5.06685226936718 -21.2528984984615 0.0399221874870817 -49.7799889415659 54.1270227094506 -581.662056757769 581.994254454321
0.018150000102818 0.0572499968335032 0.00564999974519014 16 0.150141197045644 -0.0521848503394479 -0.15466771981149 0.221783094953008 0.0879127105222624 20.0291180452576 -3.78399855539631 -30.2376622274432 1.69887855548677 0.445097155952598 2.35831918530547 -23.1742673501368 6.72052774836715 -23.6193645060894 -6.14231774070177 -50.2667802727007 55.8780068173806 -604.170694811811 637.02991634769
0.0209500001445413 0.0572499968335032 0.00564999974519014 16 0.144548860788345 -0.138537981739112 -0.139299497733682 0.243908785426871 -4.14273087266606 17.77276356372 -2.89247207290934 -33.0359754005724 4.79027463272874 0.706224069145837 6.63956259671726 -23.3742239808405 7.69120989915647 -24.0804480499864 -9.5320346696266 -50.8087389642924 57.0285509054251 -572.290963271459 607.988345219433
0.0237500001862645 0.0572499968335032 0.00564999974519014 16 0.12627671122551 -0.235381314894184 -0.116954366342785 0.291596459179271 -9.67623809391473 13.9114374794136 -1.91221098182711 -34.1470867592104 6.34894571778939 0.696440331850376 9.67070298041667 -20.8829724826174 7.30666534931459 -21.5794128144678 -11.5829139622438 -48.058524238624 53.9393799117896 -422.951498748626 422.325908959479
0.0265500002279878 0.0572499968335032 0.00564999974519014 16 0.0883340982596079 -0.330501948621434 -0.0861826366617121 0.352791578442383 -12.7084921925704 9.03362902759591 -1.05200244231448 -29.6564898484014 5.5158189321073 0.060266344993601 11.596962144022 -15.7403230246857 5.68643607611516 -15.8005893696793 -12.6489645863365 -38.6901188759973 43.6644045897161 -170.332109215317 170.055953241454
0.029350000269711 0.0572499968335032 0.00564999974519014 16 0.0523898295561473 -0.405807422345194 -0.0525540803976279 0.412536410075296 -11.0319718789453 3.89397284570187 -0.310080578098908 -19.9294952187985 2.26920252340953 -1.06369851093078 13.659336383952 -9.0068215232798 3.71373861334297 -7.94312301234902 -13.9694169620509 -23.8234680645004 28.7366568004911 4.05010266405974 14.6834521490405
0.0321500003114343 0.0572499968335032 0.00564999974519014 16 0.0239090029398601 -0.448955197952843 -0.00724523738744515 0.449649756649834 -6.50643940248526 -0.410970412575281 0.346826180259862 -9.28523501296817 -1.67212429620362 -2.12967864968934 10.9250000996341 -2.60608017038174 2.33166937363493 -0.4764015206924 -10.5781739193742 -8.87426460039289 13.8158349032997 11.9275270462068 -21.3452773061565
0.0349500003531575 0.0572499968335032 0.00564999974519014 16 0.0146866599718729 -0.463529627060828 0.0121656569025557 0.46392177826887 -3.27434110350944 -2.51483329268807 0.741588833615881 -4.41168497055029 -3.99428577400406 -2.68224578382033 6.51597477993702 0.691262852351247 1.74083331168249 3.37350863617158 -5.77438594632114 -1.89685167786223 6.95141279620222 10.5222680523625 -13.6475032160664
-0.0350500006899238 0.05444999679178 0.00564999974519014 16 0.117976671457291 -0.124487383786278 -0.153783410329682 0.230358288374265 0.119179118836607 32.1827154088167 -3.63564197292275 -7.71017580383367 -6.83294708552802 -0.80291499736315 -9.44774485438438 -24.4940656517214 6.95368778094372 -23.6911506543583 5.81210288146163 -39.8928912126504 46.7599607413924 -208.667013579757 146.619332359711
-0.0322500006482005 0.05444999679178 0.00564999974519014 16 0.119148449103037 -0.145949769092053 -0.186115878839822 0.264833548437508 -0.389749296706301 32.0241335856251 -3.1984555280155 -12.3887417613069 -6.22195822169865 -0.394595452270452 -15.4553496340597 -26.583040724848 4.81503952354187 -26.1884452725776 12.2568941060442 -44.412875346932 52.9959396133675 -362.672644067542 307.405296491713
-0.0294500006064773 0.05444999679178 0.00564999974519014 16 0.117392493883769 -0.193745029067892 -0.255784556035263 0.341678025361488 -3.4672631291554 30.5767353207028 -2.37045469044251 -20.2810154328397 -4.75991936751012 0.251828456816749 -16.5394892738768 -29.2696108655233 1.34575748727499 -29.5214393223401 14.1690345834342 -50.8577507535426 60.487913936576 -603.994990442698 593.724152410792
-0.026650000564754 0.05444999679178 0.00564999974519014 16 0.0993463389078777 -0.260201798924633 -0.289521199182297 0.401742698743822 -7.6074448182306 26.0570713708336 -1.64367869885388 -23.1391948340355 -2.58032634308988 0.812587983121637 -5.11771012077895 -28.736805101614 -0.688684140549984 -29.5493930847357 3.47403142192507 -49.196266204869 57.4935486337127 -619.208253648628 644.524809334969
-0.0238500005230308 0.05444999679178 0.00564999974519014 16 0.0717904277642567 -0.324586203371485 -0.282345066541263 0.436152273337971 -9.59920636487622 16.7295428427058 -1.35065262809842 -19.9085031425696 -0.0332860724529715 1.02520379425297 13.5458403792581 -21.6209829813603 0.410676012594101 -22.6461867756133 -14.8964930073565 -36.6380459852753 45.5752311350511 -338.232663711068 369.885481246823
-0.0210500004813075 0.05444999679178 0.00564999974519014 16 0.041860380967458 -0.373276733382566 -0.198195340697033 0.424698957207942 -9.05398838922113 2.07036904980426 -1.40541814656926 -5.29965798331769 2.58571569105129 0.714779994840477 23.3911426585494 -6.81756248850114 3.87746831783127 -7.53234248334162 -24.7965608051186 -7.37002703312196 26.9429565845556 -5.47413491595389 0.22807920202826
-0.0182500004395843 0.05444999679178 0.00564999974519014 16 0.0187002480030061 -0.355184538443185 -0.133791252737865 0.380007703781962 -8.72580427387269 -16.3649515249445 -1.37500730733419 20.9767349217085 4.77636122448097 -0.34939110885341 21.1349460734114 13.811049791596 7.24554570593719 14.1604409004494 -22.5099533807456 37.341686446653 45.8434033900038 -333.237709948956 306.875950124041
-0.015450000397861 0.05444999679178 0.00564999974519014 16 -0.00681715130805971 -0.256557586049506 -0.0697154006851876 0.265948313783342 -10.5884779618198 -35.1453076364137 -0.950883687274386 53.471821990955 5.6931027089677 -2.16700355672278 12.9913969165898 36.0076086094145 8.71564541591517 38.1746121661373 -13.9422806038642 88.6171296273687 97.4919682120827 -1911.85766184481 1866.71790963025
-0.0126500003561378 0.05444999679178 0.00564999974519014 16 -0.0393365383148194 -0.0548443001971282 -0.0617314188906312 0.09146599690025 -11.1788584234535 -49.366032128755 -0.380871208651932 77.8105006559125 3.92189240129878 -3.97002748882161 6.23728782574544 53.4041094660776 8.26164825860346 57.3741369548992 -6.61815903439737 127.176532784668 139.676276122517 -3999.63470958022 3951.79028067774
-0.0098500003144145 0.05444999679178 0.00564999974519014 16 -0.0700609970092774 0.184576975183251 -0.0413041365348424 0.201700854645243 -4.64926745969532 -54.8306815848149 0.00819890259832829 79.5972335703492 -1.36316315885229 -4.63483791550117 1.9037749862522 59.7412969298163 7.03488184933524 64.3761348453175 -1.89557608365387 134.427915155164 149.059532802419 -4625.23977069062 4605.2871592817
-0.00705000027269125 0.05444999679178 0.00564999974519014 16 -0.0683898003896077 0.401842341840723 -0.0561011607506468 0.411462966414885 6.299345775526 -50.1261574744355 0.171973686763608 57.7747790105876 -8.88849836029486 -3.65780741374368 -4.0308464557035 52.4474300074637 5.98344834464844 56.1052374212074 4.2028201424671 107.900936485023 121.688427788286 -3008.87532956034 3017.07968323022
-0.004250000230968 0.05444999679178 0.00564999974519014 16 -0.0381774489084881 0.520592208293189 -0.0669408472757398 0.52626499216149 15.4709894861323 -37.3183744469196 0.280934443857245 22.6854941074034 -15.6562199402416 -1.72233482777022 -6.41016933260497 34.4953453267405 5.42003554276046 36.2176801545107 6.69110377646222 60.003868554323 70.4056493969504 -655.320386500891 664.577965889235
-0.00145000018924474 0.05444999679178 0.00564999974519014 16 0.0178312889734904 0.535843704806369 -0.0938179611903615 0.54428691026791 17.0070588537992 -20.8617595182783 0.457392989804879 -6.87962280377724 -18.7603550199696 0.0511358350781194 -4.17842197702296 13.2818260158563 4.95063875383833 13.2306901807782 4.63581496682784 13.982136714501 19.8000527819853 429.659100022211 -470.027430742801
0.0013499998524785 0.05444999679178 0.00564999974519014 16 0.0606964572270712 0.482153469638724 -0.0956273443637959 0.495278322960585 11.9519897744354 -4.80944250476859 0.351176068630472 -23.5788338138558 -17.6611376469639 1.06751304259793 3.29541233699067 -4.37793169026707 4.39280214600579 -5.445444732865 -2.9442362683602 -18.7693913090873 19.7638924722903 243.564661622121 -346.049709915008
0.00414999989420176 0.05444999679178 0.00564999974519014 16 0.0901604473590851 0.400121462910126 -0.0802504190213707 0.417930880771492 5.53245034162383 8.58796562560922 -0.274943609483308 -28.9381325787408 -14.1238842196011 1.47042844817183 6.47652310034738 -15.7679100800916 3.59792767675323 -17.2383385282634 -6.75146670983069 -37.5260982043501 41.8443623967613 -136.997094536706 164.434904235286
0.006949999935925 0.05444999679178 0.00564999974519014 16 0.0970136030515034 0.316863088130485 -0.0652835649143284 0.337751091255892 -1.0119802685118 18.7771116911518 -1.40119630174614 -30.9697414991058 -10.0638026057003 1.54512892485559 4.3341448991792 -22.3766993172534 2.79972319660411 -23.921828242109 -5.73534120092534 -49.7468531902576 55.4968233998041 -551.2149691601 601.345411766339
0.00974999997764826 0.05444999679178 0.00564999974519014 16 0.0874652687708537 0.22375460476925 -0.0625619328351847 0.248254490063473 -3.96598149390048 26.2241618377533 -2.74965633044443 -32.7286770007225 -6.41135309920032 1.382102903886 -0.607989930936779 -27.5522243353147 2.65790277561004 -28.9343272392007 -2.14166639950765 -58.9528388384758 65.7055494982519 -862.10881258228 892.535729626264
0.0125500000193715 0.05444999679178 0.00564999974519014 16 0.075132247209549 0.129806549084994 -0.0751958499583028 0.167776668840048 -3.56361238031453 31.1274619835638 -3.73141474428651 -33.3787329833969 -2.97656312059933 1.06311903105134 -2.94982126942806 -32.7669710034118 3.4564525655546 -33.8300900344631 -0.78159347485845 -64.5061949669607 72.8432225345321 -1050.75195770543 1050.82493668414
0.0153500000610948 0.05444999679178 0.00564999974519014 16 0.0662657256921133 0.0318144608692576 -0.082008333017778 0.110130254727113 -0.175952122304893 33.3411535040034 -3.93499393538713 -33.0856658457961 0.406233921990147 0.792956250403928 -0.649025880573522 -37.1829364287521 5.08677426615543 -37.975892679156 -3.28596805481361 -66.4268193497995 76.5864762198061 -1105.7739187604 1131.14470650431
0.018150000102818 0.05444999679178 0.00564999974519014 16 0.0726003821690877 -0.0602557769037473 -0.0740177020077438 0.119917448071075 1.98118573147751 32.5421788566743 -3.20275602081143 -33.5709865803249 3.5480504021367 0.839353675119068 2.58118629550518 -38.5487847173515 6.58071833660902 -39.3881383924706 -5.78394231631661 -66.1131654369992 77.1740246381055 -1086.70009640468 1176.51171620779
0.0209500001445413 0.05444999679178 0.00564999974519014 16 0.0772011359532674 -0.159858935110581 -0.0582533700585676 0.186837762913027 0.0796645158295424 28.682864928761 -1.86518650560939 -35.1912989212699 5.94530219847401 1.05877554083402 3.81832942910313 -35.7504620292334 6.84314984492397 -36.8092375700674 -5.68351593471252 -63.874163850031 73.9400509291845 -1005.44403054234 1096.0642645794
0.0237500001862645 0.05444999679178 0.00564999974519014 16 0.0726253239313761 -0.260556348425453 -0.042787794569546 0.273851864600314 -3.63474961216742 22.2803071428245 -0.532072056139151 -34.2160516247129 6.61091949961343 0.999884092912687 3.42390088380224 -29.1736782632279 5.59074720238471 -30.1735623561406 -3.95597293994139 -56.4963587675375 64.1711160971333 -751.609356144863 785.946174608531