TITLE="DynamicStudio Exported Data"
VARIABLES= "X (m)[m]" "Y (m)[m]" "Z (m)[m]" "Status[-]" "U[m/s]" "V[m/s]" "W[m/s]" "Length[m/s]" "dU/dX[1/s]" "dU/dY[1/s]" "dU/dZ[1/s]" "dV/dX[1/s]" "dV/dY[1/s]" "dV/dZ[1/s]" "dW/dX[1/s]" "dW/dY[1/s]" "dW/dZ[1/s]" "Vorticity X[1/s]" "Vorticity Y[1/s]" "Vorticity Z[1/s]" "Vorticity Magnitude[1/s]" "Lambda-2[1/s²]" "Q-Criterion[1/s²]"
ZONE T="DynamicStudio Data" I=26 J=26 F=POINT
-0.0350500006899238 0.0600499968752265 0.00564999974519014 16 -0.0241713629166285 -0.27476970356695 0.0645899718184955 0.283292268237294 -9.81689875597409 1.34746470505988 1.08464528919858 -3.47843314435439 11.9252186195407 -1.22382693665023 11.4413303834662 1.97523641986598 0.878272466639023 3.19906335651621 -10.3566850942676 -4.82589784941427 11.8652527387246 122.441129519982 -120.522356218628
-0.0322500006482005 0.0600499968752265 0.00564999974519014 16 -0.0547442136208216 -0.284400129799421 0.0984853727432589 0.305908044025109 -19.5212659311106 -1.9635868690539 0.601844315037784 -5.26668756071472 11.4601742088704 -0.830543933572671 21.8903656980012 4.8823225143375 0.549084723644637 5.71286644791017 -21.2885213829634 -3.30310069166082 22.2878545379271 137.074312460318 -247.604538009835
-0.0294500006064773 0.0600499968752265 0.00564999974519014 16 -0.145950508912404 -0.304589118789299 0.195637578967338 0.390320566510187 -32.3471254525356 -8.69891654805728 -0.304447228194191 -5.03286681026292 9.97482251380645 -0.118697139939226 34.0419169965167 11.0520878131543 0.155056238714104 11.1707849530935 -34.3463642247109 3.66604973779436 36.3028799491823 118.60527013407 -358.230470260105
-0.026650000564754 0.0600499968752265 0.00564999974519014 16 -0.252562140623728 -0.315028262923394 0.302607961334288 0.504581033710013 -35.8919620999914 -15.8527870857702 -0.930881923946678 5.11997656019781 7.20508852850495 0.412983665096097 36.0456784500498 18.2674643622501 -0.101666564435568 17.854480697154 -36.9765603739965 20.9727636459681 46.1075407390862 18.2347205657115 -148.51226409761
-0.0238500005230308 0.0600499968752265 0.00564999974519014 16 -0.3597430006663 -0.281621270721856 0.410531187666735 0.614216104232417 -27.782707259222 -20.113317250463 -1.04982229307083 27.039044159135 3.32495758381876 0.585313041726998 29.401308165472 23.5229548146059 0.291485661918364 22.9376417728789 -30.4511304585429 47.152361409598 60.6362263239185 87.6044815820433 461.43732329284
-0.0210500004813075 0.0600499968752265 0.00564999974519014 16 -0.411724203030268 -0.171570745661035 0.475478363566411 0.651945560877122 -6.22514480190361 -19.632620119184 -0.846675569731884 52.9050373951309 -1.11741778025712 0.393988635177573 13.8614426111375 24.6509735984168 1.96050148121398 24.2569849632393 -14.7081181808694 72.5376575143149 77.8873662258089 -1043.37967817612 1033.24942561417
-0.0182500004395843 0.0600499968752265 0.00564999974519014 16 -0.388038873275121 0.00530487540992908 0.489857285497322 0.624949973222293 20.0095059867103 -15.3126837680503 -0.539831548926978 67.24032533706 -5.37499290186776 0.0099555850229375 -5.05739392650594 21.8743119533863 4.65851331439418 21.8643563683633 4.51756237757897 82.5530091051103 85.5187567820448 -729.629537168521 987.306047384836
-0.015450000397861 0.0600499968752265 0.00564999974519014 16 -0.288392476240794 0.196756488902417 0.444341095729421 0.56508614001011 42.375902602199 -9.39068171201885 0.0854951154177686 58.6940354660224 -8.74668839347806 -0.246304829726221 -27.3416155872395 16.8333989087293 6.74772682827574 17.0797037384555 27.4271107026573 68.0847171780413 75.3624004030067 63.1563098667233 413.932662963838
-0.0126500003561378 0.0600499968752265 0.00564999974519014 16 -0.137147760391235 0.328333163550148 0.328039197773905 0.483964760848688 52.0062995154713 -3.55550124673698 1.19138527364549 29.6294711636176 -10.6763417396193 -0.231877853834886 -47.3619767385741 11.3605750659349 6.47323559910442 11.5924529197698 48.5533620122196 33.1849724103546 59.9421080815709 64.0805728448868 -123.290223211945
-0.0098500003144145 0.0600499968752265 0.00564999974519014 16 0.0152808499336243 0.360887696715072 0.166735903345592 0.397837021253018 46.9166414631071 1.61744960435342 2.20606110895865 -3.51370874464386 -10.9365213689253 0.0231941555033417 -59.6061617502051 6.38583997754429 3.53122102988561 6.36264582204094 61.8122228591637 -5.13115834899729 62.3503243187246 120.673500065367 -249.02112724029
-0.00705000027269125 0.0600499968752265 0.00564999974519014 16 0.136000650723775 0.310199977841306 -0.0218787061269783 0.339409606569743 33.731198848934 6.21926779978477 2.41201698497243 -25.3950203711394 -9.74016718925475 0.101524366073243 -57.8031169414386 1.51259429594015 -0.425748639200038 1.4110699298669 60.215133926411 -31.6142881709241 68.024383045176 54.8458625235568 -41.5546982255464
-0.004250000230968 0.0600499968752265 0.00564999974519014 16 0.211336560249329 0.221697253849658 -0.172947718032325 0.351743837522545 19.8457156184142 10.010573248857 1.71166030238673 -32.0351283243812 -7.78136228608196 -0.353951160368301 -42.7302040847274 -3.63521422318787 -3.01369881727702 -3.28126306281956 44.4418643871141 -42.0457015732382 61.2673405516828 -43.863721603868 201.757873957681
-0.00145000018924474 0.0600499968752265 0.00564999974519014 16 0.251215299765269 0.133159443224625 -0.273735314189689 0.394679092923066 11.3652400122094 12.9775193552215 0.864409524188674 -29.3608559863265 -5.83047767472169 -1.2156885313018 -22.8960899956644 -9.46576025437974 -3.29384935023629 -8.25007172307794 23.760499519853 -42.338375341548 49.2459444769888 -274.871221125766 304.819807437967
0.0013499998524785 0.0600499968752265 0.00564999974519014 16 0.278788549900055 0.0587595655002709 -0.31171721719671 0.422307193391277 7.32021558193927 15.3050038989065 0.611928486504374 -25.9749902020032 -4.11477390585618 -1.8959406539381 -6.84539898988771 -15.4712919707162 -2.21989595112224 -13.5753513167781 7.45732747639208 -41.2799941009097 44.0901327899479 -349.142063875762 335.16679048279
0.00414999989420176 0.0600499968752265 0.00564999974519014 16 0.29641238451004 -0.0100127385543116 -0.320598750289452 0.436742619069222 3.85633779353819 16.9137103416703 0.995445686031652 -24.3166875315261 -2.54648443064098 -1.79357159206885 1.14667153928516 -20.4460930213727 -1.69770330247631 -18.6525214293038 -0.151225853253504 -41.2303978731963 45.2535648729623 -362.63761263383 361.428581997642
0.006949999935925 0.0600499968752265 0.00564999974519014 16 0.303971080382665 -0.0734399050256858 -0.313959021465853 0.443127639082671 -2.14579561040867 17.2034817593866 1.56241747632095 -24.1024473082152 -0.729957685616443 -0.844908724986108 2.85129523526342 -23.3789014968133 -2.84409677697035 -22.5339927718272 -1.28887775894247 -41.3059290676017 47.0703920979632 -391.049473072363 400.183321940647
0.00974999997764826 0.0600499968752265 0.00564999974519014 16 0.284232600529989 -0.138514323687802 -0.31153662417472 0.443880003236134 -10.2075835045972 15.3882333755827 1.88458410077417 -24.1124368590076 1.63096479943455 0.448921277815705 1.11482699660153 -23.5766305084988 -5.04538475405643 -24.0255517863145 0.76975710417264 -39.5006702345904 46.2398379497394 -380.55317997645 406.155003375064
0.0125500000193715 0.0600499968752265 0.00564999974519014 16 0.241408840417862 -0.201149446533677 -0.309877804308974 0.441320271091248 -18.3512676591288 11.354791877915 1.87260906659084 -24.9667399255563 4.51864433928626 1.31943469558191 0.014263889616002 -21.1374992871523 -6.44484038066637 -22.4569339827342 1.85834517697483 -36.3215318034713 42.7436662355049 -188.713803925131 317.581172588629
0.0153500000610948 0.0600499968752265 0.00564999974519014 16 0.17159561196963 -0.271541165961729 -0.305419455413939 0.443238877586832 -24.3315413358775 5.68441706443632 1.73542738213145 -25.1587097871998 7.60514552725852 1.31222344493641 3.39870970925257 -16.3273602341955 -5.52729487632911 -17.6395836791319 -1.66328232712112 -30.8431268516362 35.5699296380936 7.59806102323633 65.9463393240183
0.018150000102818 0.0600499968752265 0.00564999974519014 16 0.0931204555432001 -0.337399427080527 -0.275427867625258 0.445387811799377 -29.0821756007391 -0.593932318919767 1.6474293210705 -19.5363978487474 10.1090134949718 0.539247465894636 14.192196228527 -9.60415190772706 -2.22213339473354 -10.1433993736217 -12.5447669074565 -18.9424655298277 24.8812525400936 70.9124254232934 -281.63613218869
0.0209500001445413 0.0600499968752265 0.00564999974519014 16 -0.00308031996091196 -0.379396858426044 -0.203810830922642 0.430685870857161 -32.3861621343124 -6.71474312789174 1.60494031624396 -5.27756048754821 11.2691747045985 -0.490550363942392 27.1526980266711 -1.86843739630436 2.00490068997786 -1.37788703236197 -25.5477577104272 1.43718264034353 25.6252217677496 160.102862055084 -487.235267189465
0.0237500001862645 0.0600499968752265 0.00564999974519014 16 -0.0992730124791463 -0.368438484990814 -0.10105831465063 0.394733873880918 -33.4669205542241 -12.0097602982807 1.46518983720149 17.4520932692819 10.5158967611336 -1.21853507016478 37.6028675834292 5.7568688095199 5.42372456231861 6.97540387968468 -36.1376777462277 29.4618535675626 47.1443403582172 72.320572665742 -314.899648965046
0.0265500002279878 0.0600499968752265 0.00564999974519014 16 -0.199427707791328 -0.286104589698225 0.025124845847616 0.349654836603413 -30.2048178964261 -15.5902462388349 1.21163721682221 37.6347147177033 7.78948075345367 -1.45755684746049 38.8410473198175 11.7115583634171 7.51720452234523 13.1691152108776 -37.6294101029953 53.2249609565382 66.5003351041315 99.78285813988 152.962951784456
0.029350000269711 0.0600499968752265 0.00564999974519014 16 -0.273528780539831 -0.164449086639797 0.127733852604482 0.343769447422911 -21.9068545323519 -16.8544715331112 1.04283756308641 45.2372623165423 3.76188425090375 -1.36590805995979 31.8843290593757 14.6871259358649 8.52618119574935 16.0530339958247 -30.8414914962893 62.0917338496536 71.1637612176521 -228.705784921847 512.142882163358
0.0321500003114343 0.0600499968752265 0.00564999974519014 16 -0.322213718096415 -0.0404946603540642 0.20708362582877 0.38515597585017 -11.6013773776977 -16.0915965802683 1.11879524955577 33.2174923419535 0.112298712908126 -1.19428862345031 18.7448885792115 14.9316977536355 8.862475552015 16.1259863770858 -17.6260933296557 49.3090889222218 54.7915399768912 -440.292339670567 428.259052105606
0.0349500003531575 0.0600499968752265 0.00564999974519014 16 -0.335015976031621 0.0168835611874238 0.231125835704928 0.407357227461464 -5.33654131518736 -15.0409139304302 1.29815779623596 20.7107764427362 -1.49968190905379 -1.10322917221992 9.25019315807612 14.189438081134 8.95921635735671 15.2926672533539 -7.95203536184015 35.7516903731664 39.6898463420624 -319.831311839753 261.910909105389
-0.0350500006899238 0.0572499968335032 0.00564999974519014 16 -0.0313570189476013 -0.309164364388659 0.0615102482839332 0.316779698669398 -7.08287957967713 1.00360491133231 0.80067510632235 -3.21043064502714 16.9362176164898 -1.92264538614919 8.76629495693452 5.43651786935832 0.61830285132781 7.3591632555075 -7.96561985061217 -4.21403555635945 11.634710099351 70.4979131186765 -107.209297095162
-0.0322500006482005 0.0572499968335032 0.00564999974519014 16 -0.0533501032988231 -0.318191294601662 0.0878760801302269 0.334386212247651 -14.496501132898 -3.82881575427466 0.469409764978418 -4.32781056127102 16.0630212541604 -1.57214034571006 17.3120506232645 9.93748272144849 0.216821208756288 11.5096230671586 -16.842640858286 -0.498994806996352 20.4057582570872 244.783127689426 -241.591668374154
-0.0294500006064773 0.0572499968335032 0.00564999974519014 16 -0.120712147156397 -0.334221820695675 0.16478664238782 0.39170178121843 -25.0678894912967 -13.887706620725 -0.167334955353083 -2.72229840780867 13.3086930839504 -0.959349160907078 27.3483407636753 19.1527855960877 -0.356046269844412 20.1121347569948 -27.5156757190284 11.1654082129163 35.8647001286684 182.357232373945 -344.289968935254
-0.026650000564754 0.0572499968335032 0.00564999974519014 16 -0.206340282758077 -0.337298573405315 0.249508538719577 0.467548019783981 -29.4604637483261 -25.2138174210582 -0.616665884887874 8.79638758270174 8.24495832075943 -0.567044546808352 29.9072814418177 29.5796333207961 -0.755954459810263 30.1466778676044 -30.5239473267055 34.0102050037599 54.7469413872079 -0.748310690864681 30.1439406510675
-0.0238500005230308 0.0572499968335032 0.00564999974519014 16 -0.297933886845906 -0.292375702853121 0.339718114827507 0.538197501008618 -25.102472569863 -32.9053737405182 -0.757466715427499 31.2198461190346 1.68112231991802 -0.543815526356135 26.3186055803341 37.0489027633809 -0.285620348885206 37.592718289737 -27.0760722957616 64.1252198595528 79.1098602034716 -505.147034567593 1031.87322825648
-0.0210500004813075 0.0572499968335032 0.00564999974519014 16 -0.354276028076808 -0.169793776724982 0.402961740942361 0.562778460273411 -8.347853609987 -33.6231319988868 -0.788613228527631 56.5134624258074 -4.62731288263275 -0.805112791517688 14.864244056686 38.7527976417 1.74306834916351 39.5579104332177 -15.6528572852136 90.1365944246942 99.6716904317146 -1965.21107018019 1959.09364795406
-0.0182500004395843 0.0572499968335032 0.00564999974519014 16 -0.344138951301575 0.0202699304178047 0.427379113811379 0.549085963037018 14.7722795828813 -27.7031755706857 -0.777535297453213 69.6539468897046 -9.23016775875035 -1.08370373648325 -1.11509438936513 34.7332505406876 4.86968085682003 35.8169542771709 0.337559091911915 97.3571224603903 103.737059210298 -1847.37668725036 1857.0467451473
-0.015450000397861 0.0572499968335032 0.00564999974519014 16 -0.263128747542699 0.221194782365734 0.397048835059007 0.525177728917486 35.9503160594782 -18.0143633094797 -0.390782094990617 60.0640540118416 -11.8899093600107 -1.0865606708891 -21.8015470954975 26.9311868600238 7.15961726256625 28.017747530913 21.4107650005069 78.0784173213213 85.6717823207579 -188.578671726415 847.575708762915
-0.0126500003561378 0.0572499968335032 0.00564999974519014 16 -0.128653372526169 0.359397502249922 0.29829855457802 0.484458752164904 46.0190453583286 -7.54658276471005 0.620030788778792 30.1315190083084 -13.1187579684736 -0.78417594952171 -42.021623381065 17.8750396250375 6.59514439261392 18.6592155745593 42.6416541698438 37.6781017730185 59.8841911477175 48.2460274893311 -119.268693617473
-0.0098500003144145 0.0572499968335032 0.00564999974519014 16 0.0102637847264608 0.391744734249078 0.146881282919397 0.418501366020279 41.4900934970861 2.14290240809018 1.72947679863159 -3.81648592568778 -13.2313020890185 -0.301774191295036 -54.5916490564556 9.17841860324248 2.96695986407267 9.48019279453752 56.3211258550872 -5.95938833377796 57.4234932960277 174.407043751504 -359.762103672494
-0.00705000027269125 0.0572499968335032 0.00564999974519014 16 0.117580423355103 0.338453127882676 -0.0265030177690399 0.359274387732828 28.9731627359018 10.7935470886662 2.11698750338615 -26.6211635265851 -12.1011664790857 -0.0630935724304452 -52.7451978906925 0.730402085948245 -1.58603298590474 0.79349565837869 54.8621853940786 -37.4147106152513 66.4104629708084 34.4006290552567 21.6751822602576
-0.004250000230968 0.0572499968335032 0.00564999974519014 16 0.182812189261119 0.242547007754135 -0.165908066541888 0.346085009869822 16.0606475548562 18.0728827822323 1.55574953792297 -33.6535267209534 -9.90955989479197 -0.367684402321736 -37.3393235131848 -8.00246136329786 -4.3999063079279 -7.63477696097612 38.8950730511077 -51.7264095031857 65.1670005983559 -390.979551214352 477.146340424912
-0.00145000018924474 0.0572499968335032 0.00564999974519014 16 0.214739481608073 0.150184970907867 -0.248578070259925 0.361191953761499 8.55425143551309 23.6799573870317 0.689601621825324 -30.8262545493463 -7.47605780565343 -1.09147188794283 -16.9270172432257 -17.4188993435485 -4.46262941143643 -16.3274274556056 17.6166188650511 -54.506211936378 59.5638924786476 -657.491337700529 653.861396901691
0.0013499998524785 0.0572499968335032 0.00564999974519014 16 0.235174707174301 0.0696676001730763 -0.268240242592146 0.363474270278224 5.5871348172924 27.4481985471465 0.279226495847993 -27.1348045126294 -5.42274618829597 -1.71008224994071 -1.52041362425018 -26.7111135561791 -2.91360993245735 -25.0010313062384 1.79964012009817 -54.5830030597759 60.0632541073233 -671.237782525145 668.77126202443
0.00414999989420176 0.0572499968335032 0.00564999974519014 16 0.248166685899099 -0.00197693495817172 -0.262608767834802 0.361322539022525 3.21792014588226 29.283461478528 0.491792364256986 -25.3740461724179 -3.72833639518298 -1.64023650454959 5.00327997070923 -34.2344403363552 -1.94062537233974 -32.5942038318057 -4.51148760645224 -54.6575076509459 63.7979528391443 -671.37000366407 673.419787933203
0.006949999935925 0.0572499968335032 0.00564999974519014 16 0.253049764633179 -0.0711808543543642 -0.245889129124213 0.359947720133061 -1.03073010370467 28.7102231469078 0.987438541270282 -25.7656888457233 -1.61324513179123 -0.80840297465752 4.13736504926559 -38.3995157566346 -2.78894944512652 -37.5911127819771 -3.14992650799531 -54.4759119926311 66.2618954197809 -694.923784972814 713.647733410445
0.00974999997764826 0.0572499968335032 0.00564999974519014 16 0.23937332868576 -0.142542822271062 -0.244274289286307 0.37052391970483 -7.09635044798251 25.0890073781904 1.3579085799086 -26.3233708578988 1.47395624292434 0.362524497852459 -0.483457933547333 -38.0213909699261 -4.93008433927941 -38.3839154677786 1.84136651345593 -51.4123782360892 64.1868228935281 -665.66379590531 692.126590592508
0.0125500000193715 0.0572499968335032 0.00564999974519014 16 0.207398663759232 -0.213711883590634 -0.248533865438464 0.387886655076913 -13.5666337385305 18.5376209002 1.46194483148141 -27.5084031585149 5.26399362815691 1.19614181598324 -3.92182499409202 -33.3000608965181 -6.45816142256597 -34.4962027125013 5.38376982557344 -46.0460240587149 57.7858919696883 -517.31896367851 537.710552926715
0.0153500000610948 0.0572499968335032 0.00564999974519014 16 0.155500059525172 -0.293319457313822 -0.258731500887855 0.420902081371534 -18.5377053962871 9.84927597783756 1.43632922132604 -27.3450277624194 8.96314110701104 1.27714585263514 -2.24701552115363 -25.3216264667228 -5.72214307637227 -26.5987723193579 3.68334474247967 -37.1943037402569 45.8745893508758 -166.513615257974 193.526546821496
0.018150000102818 0.0572499968335032 0.00564999974519014 16 0.0945150430997213 -0.366569936637437 -0.247596397608807 0.452339018798263 -22.9743657728544 0.0404133381479298 1.39697279828189 -20.8009082130447 11.5793467906234 0.709645690595843 7.3633550592651 -15.0881295092108 -2.534671806863 -15.7977751998067 -5.96638226098321 -20.8413215511926 26.8240209988735 148.700154231449 -235.884061724703
0.0209500001445413 0.0572499968335032 0.00564999974519014 16 0.015976277589798 -0.411785208811828 -0.199241057763666 0.45773278093295 -26.1175776207004 -10.2957107336914 1.34108080526002 -5.2552179080017 12.4347941721652 -0.0600324608489066 19.5147732534542 -3.19993507053964 1.77827788562889 -3.13990260969073 -18.1736924481942 5.04049282568971 19.1193267016839 211.910383276156 -429.567684438687
0.0237500001862645 0.0572499968335032 0.00564999974519014 16 -0.0649663412570953 -0.398722926517948 -0.117106179373028 0.42061200039314 -28.0098406947747 -20.2563693832898 1.17160822958196 19.3116803872761 10.8039571224462 -0.540420223542928 29.9528588892913 9.54622966154043 5.40557257161035 10.0866498850834 -28.7812506597093 39.5680497705659 49.9572963448509 38.9549329722935 -34.3742792516147
0.0265500002279878 0.0572499968335032 0.00564999974519014 16 -0.154957637389501 -0.307759915616674 -0.0101573890878596 0.344719027033322 -26.5195143847878 -28.2052574408595 0.953233485053045 41.2437970620998 6.24409299594869 -0.619937394003583 33.0536627347515 20.9987264227786 7.58099888984248 21.6186638167822 -32.1004292496985 69.4490545029594 79.5045618476888 -451.115174131549 825.503690522716
0.029350000269711 0.0572499968335032 0.00564999974519014 16 -0.225351125796636 -0.174530209844622 0.0860592293135899 0.297741691733401 -20.6014548802916 -32.7745521731327 0.909856183289792 49.7652949410991 -0.550489805487971 -0.502533469687191 28.9887763879584 28.6898078217794 8.50690091225273 29.1923412914666 -28.0789202046686 82.5398471142318 91.9426174936214 -1374.5891511713 1450.48062003158
0.0321500003114343 0.0572499968335032 0.00564999974519014 16 -0.277855962117513 -0.0378755863235953 0.164662187539313 0.325195528457629 -11.8246158567329 -34.1110049971055 1.10517553225254 36.5823515714162 -7.22685314684216 -0.437648391246857 18.0767684859983 32.1719566471531 8.72717712752189 32.6096050383999 -16.9715929537458 70.6933565685217 79.6804365642672 -1188.0468380429 1161.15199787616
0.0349500003531575 0.0572499968335032 0.00564999974519014 16 -0.295993967851003 0.0216623421401406 0.194875492372278 0.355046678055879 -5.74250909265592 -34.1026714755267 1.33222473189705 22.6312294653416 -10.6945365098527 -0.478083348861641 9.61599736854484 32.9655618943772 8.77584938332078 33.4436452432389 -8.28377263664779 56.7339009408683 66.376455255004 -590.411114462605 691.899436890322
-0.0350500006899238 0.05444999679178 0.00564999974519014 16 -0.0388703286647796 -0.3724900917445 0.0415295367051537 0.376808271296264 -1.68584818021447 0.635942933405423 0.413266007380884 -2.27680960563502 17.2562583586575 -3.05656835668638 3.53682081046055 10.1380380298848 -0.269389895051209 13.1946063865712 -3.12355480307967 -2.91275253904044 13.8686105885945 5.12445673164227 -2.31206350984686
-0.0322500006482005 0.05444999679178 0.00564999974519014 16 -0.0442816456158956 -0.379708814692944 0.0504789173409032 0.385600530588175 -4.77500308935954 -6.05214491101362 0.297104048417301 -1.95029534045525 15.4407324870404 -2.79392018859893 8.38810380855599 16.3041780413278 -0.712093200199518 19.0980982299267 -8.09099976013868 4.10184957055837 21.1430083719887 23.2742243487982 -50.0675761384481
-0.0294500006064773 0.05444999679178 0.00564999974519014 16 -0.0676213963826497 -0.384967056012053 0.0874609949548418 0.400526794486732 -10.5534871679758 -20.2291544114226 0.0425541678400073 2.5693857266366 10.5258613019893 -2.34413805329229 14.1653761437512 29.1957866013211 -1.38266645718877 31.5399246546134 -14.1228219759111 22.7985401380592 41.4004152178293 -3.75814621431529 8.76631435647029
-0.026650000564754 0.05444999679178 0.00564999974519014 16 -0.106993974049886 -0.367226259955593 0.131397518798088 0.404435587492315 -15.8079599350451 -37.0699497476913 -0.180850352703192 16.5493132217432 2.54498629169355 -2.14694390425058 17.456192346716 44.4029925916387 -1.71626346139892 46.5499364958892 -17.6370426994192 53.6192629694346 73.1641115871561 -369.20731912629 694.501618025936
-0.0238500005230308 0.05444999679178 0.00564999974519014 16 -0.161019950310389 -0.293348988567789 0.190952328270845 0.385284109669425 -18.0270209528382 -50.1063488585371 -0.404306503995233 38.9103465363741 -6.33460376384604 -2.34284175808522 19.2740225271063 56.4293952973833 -0.838820989237763 58.7722370554685 -19.6783290311015 89.0166953949112 108.468357325954 -1758.57841710628 2224.28223103327
-0.0210500004813075 0.05444999679178 0.00564999974519014 16 -0.214638313452403 -0.147260986789091 0.249856369450378 0.360809657834588 -10.6937263341402 -54.1181694930402 -0.790415302203723 61.4759617509335 -12.6791683037609 -2.7260878720975 15.4138252022327 61.2205023267452 1.84993291116938 63.9465901988427 -16.2042405044365 115.594131243974 133.09300126766 -3405.51887122168 3598.39157897164
-0.0182500004395843 0.05444999679178 0.00564999974519014 16 -0.227388495206833 0.0573253164397708 0.290859505767003 0.373618751874652 4.94565967610512 -47.8656332903119 -1.20268336346009 71.0785034427597 -14.4633693058244 -2.85431859349774 5.86222784033879 57.7131460525069 5.51207487811698 60.5674646460046 -7.06491120379888 118.944136733072 133.663900912469 -3402.27635429484 3450.00645987499
-0.015450000397861 0.05444999679178 0.00564999974519014 16 -0.189117480516434 0.261532662058404 0.292935880373601 0.435862575556213 22.16477765536 -33.9422872406234 -1.18056911812512 59.5668925220836 -12.731022767861 -2.4645946674368 -10.6376705628493 47.3740109708185 7.81967602589068 49.8386056382553 9.45710144472418 93.509179762707 106.382752735561 -1960.33964284631 1917.62442342733
-0.0126500003561378 0.05444999679178 0.00564999974519014 16 -0.0984362125396729 0.402584482981201 0.231585887896144 0.474758862317537 31.9117405678451 -16.5172245907913 -0.35453340663427 29.503903047683 -10.3773967090147 -1.68792649382958 -29.6799545697823 32.9246128618739 6.54408055346894 34.6125393557035 29.325421163148 46.0211276384744 64.6216093591214 62.1516582428866 342.136073220375
-0.0098500003144145 0.05444999679178 0.00564999974519014 16 0.000818104743957493 0.434655429796937 0.112060499469129 0.44886920978009 28.4417974767152 0.948891047262922 0.853241080387677 -4.24361933584531 -9.21010321768696 -0.808706477133928 -42.0967657280959 16.7846817440265 1.76553783836835 17.5933882211605 42.9500068084835 -5.19251038310823 46.7032392669709 77.537087694983 -174.478303437381
-0.00705000027269125 0.05444999679178 0.00564999974519014 16 0.0723262755076091 0.380913154304484 -0.0283956105568602 0.388757291828579 17.8755486115199 16.4441565114397 1.53148909079087 -27.7263297635128 -8.80793918053452 -0.256906797153862 -40.3287941392254 0.321411181493995 -3.68211639884841 0.578317978647858 41.8602832300163 -44.1704862749526 60.8576176131417 -219.17488719248 326.947048732036
-0.004250000230968 0.05444999679178 0.00564999974519014 16 0.107450884183248 0.275695528176536 -0.135511401532179 0.325449007854558 7.43518719043598 28.8878953066758 1.22150370716226 -35.4153951289568 -8.13251111989705 -0.245996982645634 -24.9111393010606 -15.7903133328512 -6.71500154732018 -15.5443163502055 26.1326430082228 -64.3032904356326 71.1298387615198 -975.761870069555 993.836695061409
-0.00145000018924474 0.05444999679178 0.00564999974519014 16 0.115384422938029 0.17633416222195 -0.17946849462809 0.276796391572094 2.56646083657538 37.8940716652344 0.33114556439288 -32.5444381670573 -7.08596118332115 -0.682165846104928 -4.9801888106951 -30.7488879972554 -6.33450122383611 -30.0667221511504 5.31133437508798 -70.4385098322916 76.7710995176721 -1158.61555556646 1224.35753705542
0.0013499998524785 0.05444999679178 0.00564999974519014 16 0.121122215588888 0.0873921904133749 -0.161500669234859 0.219978299424548 2.27637680196295 43.4243791193867 -0.367134396015294 -28.4272170476915 -6.1286766479056 -1.18162366562609 8.20017004991407 -43.1240858913196 -4.00434731618311 -41.9424622256935 -8.56730444592937 -71.8515961670782 83.6374360844464 -1148.10806563082 1187.96314362008
0.00414999989420176 0.05444999679178 0.00564999974519014 16 0.128123360872269 0.013264339795957 -0.12521097743583 0.179636653224959 2.60793429771588 45.509860051501 -0.480169848967466 -26.7500780327005 -5.15464204567395 -1.25445239602492 11.0627378969001 -51.3808007114986 -2.2688699432674 -50.1263483154737 -11.5429077458675 -72.2599380842016 88.6982985553074 -1135.75396655904 1150.5847131381
0.006949999935925 0.05444999679178 0.00564999974519014 16 0.135806690057119 -0.0633008571271785 -0.0907476675401752 0.175173042279022 1.95216931568567 43.7101848118973 -0.0974990501662963 -28.4809131999488 -3.17847709455758 -0.781093850643487 5.4012358845647 -54.5390540527091 -2.58551496801309 -53.7579602020657 -5.49873493473099 -72.1910980118461 90.175989060976 -1192.24827789112 1199.79818687241
0.00974999997764826 0.05444999679178 0.00564999974519014 16 0.138667446772258 -0.145620907234649 -0.0920733398528925 0.221159691919313 -0.483573078999173 37.735723792241 0.41846886008421 -30.1988367207323 0.325011747785876 0.0380605926673934 -4.08858337556198 -52.5759242327021 -4.62889183230056 -52.6139848253695 4.50705223564619 -67.9345605129733 86.0444619435202 -1140.36873940153 1143.86377332079
0.0125500000193715 0.05444999679178 0.00564999974519014 16 0.132379289865494 -0.231319754587797 -0.11853489381397 0.291690977404753 -4.01750351746339 28.125202680181 0.791289840697482 -31.5394123919683 4.44144945884013 0.758314411335411 -11.2110209208133 -46.4029329373743 -6.50225192021959 -47.1612473487097 12.0023107615107 -59.6646150721492 76.9941881365717 -908.50378566709 910.511403536134
0.0153500000610948 0.05444999679178 0.00564999974519014 16 0.115045570929845 -0.323633367900426 -0.161778227498483 0.379665951991613 -7.19127679201099 15.9179887772001 0.981106621095662 -30.0740661532312 7.50234960425117 1.03451238513686 -12.239646698525 -37.099540263077 -6.27742934246723 -38.1340526482138 13.2207533196207 -45.9920549304313 61.1903865524545 -470.160913307351 473.202769618933
0.018150000102818 0.05444999679178 0.00564999974519014 16 0.0909205849965413 -0.40426830556166 -0.189548446202728 0.455662187498236 -10.652754728727 2.05881176848611 1.00294765187027 -21.6281901274129 8.44246422581884 0.884717856552899 -5.20652297892737 -24.7705280050251 -3.47097222085842 -25.655245861578 6.20947063079764 -23.687001895899 35.4658035937306 11.5540997336942 -10.598472964293
0.0209500001445413 0.05444999679178 0.00564999974519014 16 0.0538252671559651 -0.450875185959352 -0.185473479163678 0.490495671919101 -13.0535446645785 -12.9907081599239 0.899777131140711 -4.29305790025633 7.45213875089982 0.583455364510927 4.42366536703167 -8.99773651908123 0.874822765483716 -9.58119188359216 -3.52388823589096 8.69765025966753 13.4114185024835 116.675215168754 -156.677461031954
0.0237500001862645 0.05444999679178 0.00564999974519014 16 0.0167264191309611 -0.432045348745887 -0.155315895179325 0.459419180885229 -16.0671128433782 -28.0368103178439 0.697114068738474 22.5238791011379 4.90861707901172 0.494451680433141 13.6019093811041 9.69815614344841 4.84890155139871 9.20370446301527 -12.9047953123656 50.5606894189817 52.9870289072648 -358.117375160833 484.246622050619