TITLE="DynamicStudio Exported Data"
VARIABLES= "X (m)[m]" "Y (m)[m]" "Z (m)[m]" "Status[-]" "U[m/s]" "V[m/s]" "W[m/s]" "Length[m/s]" "dU/dX[1/s]" "dU/dY[1/s]" "dU/dZ[1/s]" "dV/dX[1/s]" "dV/dY[1/s]" "dV/dZ[1/s]" "dW/dX[1/s]" "dW/dY[1/s]" "dW/dZ[1/s]" "Vorticity X[1/s]" "Vorticity Y[1/s]" "Vorticity Z[1/s]" "Vorticity Magnitude[1/s]" "Lambda-2[1/s²]" "Q-Criterion[1/s²]"
ZONE T="DynamicStudio Data" I=26 J=26 F=POINT
-0.0350500006899238 0.0600499968752265 0.00564999974519014 16 0.157243241270383 -0.272105286538523 -0.195076798878144 0.369894148842573 -12.5318145965999 8.04600015356003 -0.818762785957443 -4.08243869539637 5.66351070492893 0.984384386184028 0.390167589050151 -4.71467291211604 -8.65566091776106 -5.69905729830007 -1.20893037500759 -12.1284388489564 13.4551029596134 66.3410857783225 26.2834509193259
-0.0322500006482005 0.0600499968752265 0.00564999974519014 16 0.122268587549528 -0.280992472652967 -0.197982378521313 0.36483338579952 -20.4095879987582 6.50935162743662 -0.148556864129401 -7.19873306546854 7.33183239690067 1.35904685120595 9.7327339742129 -5.51033127512548 -9.04529740810644 -6.86937812633142 -9.8812908383423 -13.7080846929052 18.2411581436675 56.8094562330853 24.446257955006
-0.0294500006064773 0.0600499968752265 0.00564999974519014 16 0.039920257727305 -0.306640740464791 -0.143023953881736 0.340702248413148 -30.0880716049919 2.77965707435531 0.81577593102486 -4.40373033297881 10.1678271403721 1.94374061910881 24.0499770640522 -5.24866237461893 -8.57336898232679 -7.19240299372774 -23.2342011330273 -7.18338740733411 25.3605957689877 88.5773590370789 -132.32319905676
-0.026650000564754 0.0600499968752265 0.00564999974519014 16 -0.0532185784975687 -0.298965824435387 -0.0586557459458709 0.309278641050589 -32.2308816692472 -2.48635699667618 1.51249691955456 8.94554984254107 12.1739356469324 2.34914650254224 41.1438326841593 -2.38008126282526 -6.48854253117721 -4.7292277653675 -39.6313357646047 11.4319068392172 41.5174284334194 124.814287672571 -296.633262153005
-0.0238500005230308 0.0600499968752265 0.00564999974519014 16 -0.15036058584849 -0.254586541002694 0.100896785272441 0.312414426547064 -28.5717048105698 -8.18331295640964 1.58515709736405 29.7405522071237 11.4893116630344 2.13618197046583 48.7215677738621 3.39855088066908 -3.45819005655522 1.26236891020325 -47.1364106764981 37.9238651635334 60.5116049669052 -10.9533027271548 -110.310075048987
-0.0210500004813075 0.0600499968752265 0.00564999974519014 16 -0.224194281498591 -0.138003302171007 0.232930769555581 0.351517752997664 -20.9005271670837 -13.1716541165837 0.900116573083199 48.9569297355313 7.6447617302293 1.25483666649499 36.7246894805198 10.3782507136098 -0.711875637852181 9.12341404711479 -35.8245729074366 62.128583852115 72.2952117317919 -108.863522754661 448.421140161084
-0.0182500004395843 0.0600499968752265 0.00564999974519014 16 -0.277520060141881 0.00745200002449565 0.323176085231438 0.426046591526133 -7.21044239521865 -16.6340193819566 -0.484757567554288 56.5239901513906 1.73066284956722 -0.0911452858521768 11.9345545679913 16.2617442298049 1.60024115394105 16.3528895156571 -12.4193121355455 73.1580095333472 75.9852003242257 -916.648455010635 926.240881166435
-0.015450000397861 0.0600499968752265 0.00564999974519014 16 -0.272814087073008 0.163559756500569 0.313461559458325 0.446584224206419 10.3467984682396 -17.8980064113995 -2.0042082203132 50.2402072372734 -4.01430701132279 -1.33203803090107 -12.0676147068009 19.3676134112182 3.56641943213026 20.6996514421193 10.0634064864877 68.1382136486729 71.9205386462707 -862.56589890487 881.861031229299
-0.0126500003561378 0.0600499968752265 0.00564999974519014 16 -0.222373938560486 0.277736896565208 0.261977194399806 0.441837077043303 24.9436340702316 -16.4313425418937 -2.89633668309422 31.7538782388833 -7.56450967604405 -1.88266971057606 -22.2543898001512 19.2478248579023 4.52857614794444 21.1304945684783 19.358053117057 48.1852207807769 56.0628889987263 65.4185503175503 383.556268616772
-0.0098500003144145 0.0600499968752265 0.00564999974519014 16 -0.128985278606415 0.337265094490722 0.187880531870372 0.407043044793673 33.9498877118087 -12.1264730147975 -2.69557645164282 10.487925314303 -8.06139469087412 -1.5333296751269 -24.9963166362235 16.3191965276015 3.52670033543288 17.8525262027284 22.3007401845807 22.6143983291005 36.4341421799183 -3.2869779371104 -97.5577184222707
-0.00705000027269125 0.0600499968752265 0.00564999974519014 16 -0.0201961819330851 0.340311290707517 0.110470671196429 0.358362148590333 36.6245785622018 -5.63159359003096 -1.51900507256689 -7.90693654869346 -6.13800621508525 -0.445564219728631 -30.4086450035983 10.4686748240275 0.251272713785339 10.9142390437561 28.8896399310314 -2.2753429586625 30.9662573590744 49.9162280171003 -303.196519337194
-0.004250000230968 0.0600499968752265 0.00564999974519014 16 0.0925704908370972 0.300726605322513 -0.00444909764143328 0.31468330332645 35.9227697772479 1.45146346720387 -0.00824234066519069 -20.2529488690113 -3.2360930859121 0.662398489243144 -37.5726751962827 2.2848120048212 -3.38716923613687 1.62241351557805 37.5644328556175 -21.7044123362151 43.4142874666875 21.13604577795 -199.391460045759
-0.00145000018924474 0.0600499968752265 0.00564999974519014 16 0.196846684614817 0.234308696771817 -0.123047977267997 0.329833272027699 28.8584626655848 7.41083233676201 1.35491671653027 -28.5148415373496 -0.659256159537094 1.12164183179731 -34.9055508870464 -6.54501717556012 -5.17672102378316 -7.66665900735743 36.2604676035767 -35.9256738741116 51.6164045093626 27.5444465468146 100.949444752214
0.0013499998524785 0.0600499968752265 0.00564999974519014 16 0.266083104610443 0.144995222834599 -0.217888628472574 0.373228197784742 15.5470448481349 11.1327426889201 2.2281935549974 -34.0934563186181 0.864852495109722 0.598328592382783 -17.6662590196414 -13.7987288969135 -4.53218005702631 -14.3970574892963 19.8944525746388 -45.2261990075382 51.4633227091304 -227.112447245388 366.237921788629
0.00414999989420176 0.0600499968752265 0.00564999974519014 16 0.289654290676117 0.0431334207220546 -0.229904531415474 0.372311957443807 1.18150844119015 12.5472160463119 2.46739655840824 -36.0153335620148 1.31316882686475 -0.548009712164915 2.88219852266874 -17.5176929188995 -2.63514864382045 -16.9696832067346 -0.4148019642605 -48.5625496083267 51.4437890640617 -432.96261694239 430.15845324679
0.006949999935925 0.0600499968752265 0.00564999974519014 16 0.273464111884435 -0.0591174080750595 -0.20119247247465 0.344609778454876 -7.95955452146702 12.460807655295 2.2029793596486 -33.4859848862627 1.18020428900991 -1.50454891727807 11.6359352708566 -17.4772244055605 -1.3706296227675 -15.9726754882824 -9.43295591120805 -45.9467925415577 49.550123756997 -382.063592267578 365.231430394397
0.00974999997764826 0.0600499968752265 0.00564999974519014 16 0.243074282010396 -0.146168871379147 -0.160233601074821 0.325768710051362 -10.0822836629335 11.8883764107625 1.79830637874743 -28.0081382866875 1.23771096549799 -1.63647047794598 9.01426208637503 -15.2488288763867 -1.43707616401219 -13.6123583984408 -7.2159557076276 -39.8965146974501 42.7679576662937 -257.072071354153 292.037998785228
0.0125500000193715 0.0600499968752265 0.00564999974519014 16 0.215198413133621 -0.214630825088975 -0.14650548139199 0.337402732904613 -12.2599994602389 11.1821903112205 1.50303543922183 -23.4189823533152 1.91886361980407 -0.940115266011588 6.13352971428736 -12.7183282595278 -1.98611055981412 -11.7782129935162 -4.63049427506553 -34.6011726645356 36.8430309327701 -136.385293110756 237.713282636951
0.0153500000610948 0.0600499968752265 0.00564999974519014 16 0.172193684975306 -0.273653673781858 -0.12206635916722 0.345596866826109 -19.661526948369 9.81615776026582 1.13957252961468 -19.199219000127 3.26024594116204 0.199269923534321 12.2610025329863 -10.5873004252637 -1.90364296884018 -10.7865703487981 -11.1214300033716 -29.0153767603929 32.8926799418504 21.047847915214 143.720761292063
0.018150000102818 0.0600499968752265 0.00564999974519014 16 0.100499868194262 -0.31662878789939 -0.0730589376430726 0.340134710376985 -32.411622415633 6.92276319905546 0.471330356102662 -14.4990491472271 4.87890378904134 1.45452023450228 24.7495670707126 -8.03599031472653 -1.25020783126928 -9.49051054922881 -24.27823671461 -21.4218123462826 33.740133560124 -2.12210245721577 -23.314794855582
0.0209500001445413 0.0600499968752265 0.00564999974519014 16 -0.0183746333916981 -0.349811169119785 0.0238016980273339 0.351101127913617 -44.3110030578258 1.98698495584347 -0.352611009039931 -2.39202162326794 6.50593345047036 2.72446824798019 35.5066166412651 -4.18092445291645 -0.746467134153866 -6.90539270089665 -35.8592276503051 -4.37900657911141 36.7796731177685 32.4509049871064 -231.400464231382
0.0237500001862645 0.0600499968752265 0.00564999974519014 16 -0.160329745610555 -0.324559095227936 0.134810906738664 0.386287734983163 -47.1773486748796 -4.47554882037271 -0.688035019014993 16.8970563628255 7.49793092450733 3.81634459176676 34.8503892864941 0.519576721826693 -1.19104814159848 -3.29676786994007 -35.5384243055091 21.3726051831982 41.6009198554977 21.1416828887257 -208.853399678877
0.0265500002279878 0.0600499968752265 0.00564999974519014 16 -0.295266850590706 -0.253294497725874 0.225654614910612 0.449733944534336 -40.2071275882031 -11.0009902306345 -0.0893121897165251 40.6446206227967 6.64088108278281 4.37712755107684 21.3302485770725 4.71828242272123 -3.21792057643129 0.341154871644392 -21.419560766789 51.6456108534312 55.9122803193776 12.3168998386155 269.386363930417
0.029350000269711 0.0600499968752265 0.00564999974519014 16 -0.39477654894193 -0.100252604339039 0.255172326119694 0.480637102488557 -26.3219833788059 -15.7528996603752 1.24319786393418 53.9815141449139 3.28738898799523 4.36859696425579 2.84359973390491 7.18895934355589 -6.90042482745408 2.8203623793001 -1.60040186997073 69.7344138052891 69.809771514189 -16.1637879711622 887.842441483468
0.0321500003114343 0.0600499968752265 0.00564999974519014 16 -0.445926734606425 0.0398523374732273 0.235437175368813 0.505835472248116 -12.4437707558611 -17.9164282318299 2.66349926642945 41.9547630207585 -1.51285754793901 3.93907562748591 -6.23303341424913 7.84237776024903 -11.0959284369914 3.90330213276312 8.89653268067859 59.8711912525884 60.654295835349 -507.626768634064 911.076862867882
0.0349500003531575 0.0600499968752265 0.00564999974519014 16 -0.463611447413762 0.124571380005218 0.212482411790018 0.524978454995623 -6.657299804764 -18.3496150178823 3.42297347079652 31.1526720093001 -4.47509879620294 3.66544405770094 -6.83503840089188 7.65520676206405 -13.5647935529194 3.98976270436311 10.2580118716884 49.5022870271824 50.7111569077099 -471.043974986064 747.77672424385
-0.0350500006899238 0.0572499968335032 0.00564999974519014 16 0.133959443569183 -0.2861644816906 -0.185065196652819 0.366175327015299 -11.1059446893811 12.8993247088323 -0.780309689622198 -5.87575429843858 7.61054362654229 0.897243220363886 1.28126684520251 -13.5593848660287 -7.80663261946069 -14.4566280863926 -2.06157653482471 -18.7750790072709 23.7854532260052 10.3400320315466 31.7241490652829
-0.0322500006482005 0.0572499968335032 0.00564999974519014 16 0.101652133067449 -0.300993000200494 -0.17966330930125 0.364977871981211 -17.5753861086829 10.1020490250585 -0.260254852143541 -9.3979292514662 9.85140444956345 1.30355222166855 9.29321633167649 -13.15168085454 -8.09265907729247 -14.4552330762085 -9.55347118382003 -19.4999782765247 26.0858530190701 53.903109550672 3.86616284393168
-0.0294500006064773 0.0572499968335032 0.00564999974519014 16 0.0312235494454702 -0.334962468011654 -0.127567095711517 0.359789006119841 -25.3316098833861 3.75461693107115 0.506822837148911 -6.72551880769105 13.4270575291162 2.00557807762861 21.6901348946068 -10.4395440093937 -7.61021540114536 -12.4451220870224 -21.1833120574579 -10.4801357387622 26.7104290229007 136.306256116695 -214.336763853301
-0.026650000564754 0.0572499968335032 0.00564999974519014 16 -0.0475518401463826 -0.33555022016244 -0.0470852130387599 0.342158070253026 -26.4592067254133 -5.01818171069134 0.991416849678671 8.58698768768467 15.4387053231647 2.63571852544532 35.8818542863346 -3.77391714605499 -5.4569877324556 -6.40963567150031 -34.890437436656 13.605169398376 37.9937717043344 188.156857691541 -330.892981798337
-0.0238500005230308 0.0572499968335032 0.00564999974519014 16 -0.127191613515218 -0.287723828549303 0.0919661412581142 0.327750635699735 -22.7769353004327 -14.6856408447511 0.910092938789358 32.0777589528698 13.6882687269077 2.69225097543912 41.2117533253221 7.07166498581159 -2.1433868680934 4.37941401037247 -40.3016603865327 46.7633997976209 61.8887603496612 -145.280730591183 122.240941848271
-0.0210500004813075 0.0572499968335032 0.00564999974519014 16 -0.187293258110682 -0.161280981753516 0.206045739093485 0.321784347362753 -16.4225213266037 -23.2956358086436 0.230549015217237 53.4549374442103 8.13457091675098 2.00547709467788 29.9617135218389 19.0178887820523 0.984611250634395 17.0124116873744 -29.7311645066217 76.7505732528539 84.0476935375517 -1021.38036802 1058.46859740458
-0.0182500004395843 0.0572499968335032 0.00564999974519014 16 -0.2299858045578 0.00425145524476344 0.277359423416977 0.360332894596087 -5.16653284418876 -28.6634294450292 -0.909072635010203 61.4651134404669 0.666806212549703 0.752856887070929 8.11095518548293 27.6432996178431 3.2792605402814 26.8904427307722 -9.02002782049313 90.1285428854961 94.4860362953284 -1740.5264438753 1730.16208915276
-0.015450000397861 0.0572499968335032 0.00564999974519014 16 -0.220715393622716 0.176545017470295 0.258403297861417 0.382956515183217 9.17261935229454 -29.1118308702997 -1.98948508090973 53.7615743212613 -5.88069420688452 -0.539946745885205 -11.8658060028164 30.2298005692292 4.4934355589509 30.7697473151145 9.87632092190668 82.873405191561 88.9512245718581 -1548.86613295194 1518.66418141094
-0.0126500003561378 0.0572499968335032 0.00564999974519014 16 -0.173943365812302 0.302470089501585 0.206123853185369 0.405254848712748 20.8902525840094 -24.3731582246345 -2.44757542730863 32.9224998060231 -9.38728196977185 -1.28487790862311 -19.1517029064457 26.9652344893113 4.23674968211921 28.2501123979344 16.7041274791371 57.2956580306576 66.0294567182045 -399.633384036043 642.829609261371
-0.0098500003144145 0.0572499968335032 0.00564999974519014 16 -0.0918202559153238 0.361679495773278 0.137365176000943 0.397633258967278 27.8459288287982 -15.6507743644339 -1.98666785677273 9.2992334605165 -9.20158334484849 -1.23059415526594 -19.8509132718092 19.693353674625 2.21605024749137 20.9239478298909 17.8642454150364 24.9500078249504 37.1408905049641 -11.518910549353 -84.5722692512551
-0.00705000027269125 0.0572499968335032 0.00564999974519014 16 -0.00319193840026855 0.358351065657334 0.0763041874013531 0.366398695062468 29.752507646309 -4.83970437378604 -0.817862673050513 -10.2616121823768 -6.29934534930828 -0.43255521934869 -23.2246890677248 9.31416827552856 -1.1955434138215 9.74672349487725 22.4068263946743 -5.42190780859074 25.0292143754358 62.1006447844046 -280.089477930871
-0.004250000230968 0.0572499968335032 0.00564999974519014 16 0.0887899152437845 0.309270294859695 -0.0126310121128336 0.322011345760667 29.6813783735683 5.9127389267081 0.508091484741131 -22.6877279915662 -2.47719496946115 0.535833689672735 -29.4174493398583 -3.29705924370055 -4.22275274327269 -3.83289293337329 29.9255408245994 -28.6004669182743 41.5718146082988 15.4165324864087 -37.5430579055575
-0.00145000018924474 0.0572499968335032 0.00564999974519014 16 0.174716631571452 0.235165533237159 -0.104839815355178 0.311159310087453 24.4393963805073 14.5867403256125 1.62173842457326 -30.0212745419679 0.605071515587002 1.01355192565574 -27.6702701270359 -15.7442894666751 -5.248619918109 -16.7578413923308 29.2920085516091 -44.6080148675804 55.934980142522 11.4055709494047 382.082820748076
0.0013499998524785 0.0572499968335032 0.00564999974519014 16 0.23336248755455 0.141768414604982 -0.175247847429564 0.324450523201849 13.5171619314094 19.7950527433629 2.25822573621874 -34.5410479051176 2.05105988848918 0.604035826882783 -13.6644522517776 -24.5634730874316 -4.09557800350557 -25.1675089143144 15.9226779879963 -54.3361006484805 61.9624645486549 -678.652921569836 693.400142421058
0.00414999989420176 0.0572499968335032 0.00564999974519014 16 0.253296857674917 0.0388002025448562 -0.177618370739122 0.311790056688037 0.962881333378204 21.5720716487698 2.35746295359396 -35.6735260734712 2.00740520919337 -0.420313297230302 3.02467033360973 -27.468096992241 -2.13144771057649 -27.0477836950107 -0.667207380015761 -57.245597722241 63.3173453887375 -746.443939085175 746.477988300945
0.006949999935925 0.0572499968335032 0.00564999974519014 16 0.238123807907104 -0.061957117531759 -0.149273963652183 0.287792196783472 -7.37756917879059 21.2375162109109 2.08919313062297 -33.1240501458526 1.34798449285796 -1.29201861565209 9.43945601068505 -25.4275790474568 -1.1691618153551 -24.1355604318047 -7.35026288006208 -54.3615663567636 59.9310565443671 -668.597289391456 648.003511138198
0.00974999997764826 0.0572499968335032 0.00564999974519014 16 0.210100891590118 -0.14897982588358 -0.118259162581138 0.283412425101047 -9.52903770848648 20.2930953286316 1.7915642952473 -28.2427538128503 1.20149638644799 -1.39293803625962 6.60192192789478 -21.5615581385295 -1.64893467431765 -20.1686201022699 -4.81035763264749 -48.5358491414819 52.7791760950125 -541.857109973527 533.553680673686
0.0125500000193715 0.0572499968335032 0.00564999974519014 16 0.183375965356827 -0.219124477074559 -0.11116989515877 0.306595868715413 -11.3824339809178 19.0976792613774 1.65155944392601 -24.345332610313 2.13541128483986 -0.712486691698164 4.3816070310141 -18.2407955023957 -2.48447165344445 -17.5283088106975 -2.73004758708809 -43.4430118716904 46.9253668081004 -398.738109654016 443.374332985588
0.0153500000610948 0.0572499968335032 0.00564999974519014 16 0.144483929077784 -0.281992488643931 -0.0937379763364637 0.330427265250625 -17.5705437694645 16.5844747868034 1.46378993225979 -20.7555572076581 4.17097230891601 0.381167980923044 10.4135935823211 -15.3518064798786 -2.52325580273966 -15.7329744608016 -8.94980365006131 -37.3400319944614 41.495824610511 -48.0984352873234 295.35261375849
0.018150000102818 0.0572499968335032 0.00564999974519014 16 0.0797987755139669 -0.330370962981736 -0.0489668693247343 0.343381088655846 -28.1408608260433 11.187194872046 0.976624351875333 -16.0872802856748 6.77598903893496 1.6846067003777 21.2083479071158 -10.813615069129 -1.9176866590577 -12.4982217695067 -20.2317235552405 -27.2744751577208 36.1859804419415 -1.49546177004996 27.7646039838461
0.0209500001445413 0.0572499968335032 0.00564999974519014 16 -0.0237183892726898 -0.366507196059295 0.0345258481997553 0.368893102330269 -37.8579273884851 2.10861702751952 0.318821248770294 -4.00433906324983 9.4341943968882 3.16332947075708 30.1170954692726 -3.16789668747639 -1.47820453715853 -6.33122615823348 -29.7982742205023 -6.11295609076935 31.0707226075389 78.5294243501587 -306.280206877395
0.0237500001862645 0.0572499968335032 0.00564999974519014 16 -0.147371312379837 -0.347227225443348 0.133239300323961 0.400047198405963 -39.8509773031086 -9.51665208818677 0.0700319219766085 16.4870602186675 11.1258421563491 4.62338685534087 29.0582518079733 6.44692823812264 -1.88727301360033 1.82354138278177 -28.9882198859967 26.0037123068543 38.9850644358997 37.5651902993332 -264.103543314947
0.0265500002279878 0.0572499968335032 0.00564999974519014 16 -0.261865720351537 -0.270910059240026 0.20989256586295 0.431301292482641 -33.9907702315377 -20.8842336798692 0.665968371654305 42.0054858707031 10.4606563331755 5.50189126774305 17.0037055652007 15.1660401615505 -3.67919080051643 9.66414889380746 -16.3377371935464 62.8897195505723 65.6919649241572 109.029047251932 513.492561419695
0.029350000269711 0.0572499968335032 0.00564999974519014 16 -0.347899467547734 -0.111489729826959 0.234577668695905 0.434155135899244 -22.6516754612905 -29.1869291441363 1.93466490267433 57.1458026690243 7.05333325942118 5.48785788852394 0.804655180862205 20.7079687528535 -7.02148347741185 15.2201108643296 1.13000972181213 86.3327318131607 87.6713709201413 -1180.89114021031 1502.46505170549
0.0321500003114343 0.0572499968335032 0.00564999974519014 16 -0.393889158566793 0.0480693381799695 0.213142847262595 0.450432241129254 -11.0569807753228 -33.5228508517052 3.25392560530815 45.0573326301336 2.38655730458041 4.81876356152224 -6.91012043675952 23.2061941895089 -10.9769144591518 18.3874306279866 10.1640460420677 78.5801834818388 81.340338535586 -1381.77100619488 1489.89647492557
0.0349500003531575 0.0572499968335032 0.00564999974519014 16 -0.412243767579397 0.14050807502276 0.1932099672339 0.476463571003263 -6.28945975402141 -34.8878585871403 3.95634756219532 32.7070085006759 -0.246710719165338 4.25641490729984 -6.74560008578586 23.9158587730456 -13.3934605920862 19.6594438657457 10.7019476479812 67.5948670878163 71.2045748052054 -1029.73830955993 1155.06322682731
-0.0350500006899238 0.05444999679178 0.00564999974519014 16 0.0807131588459016 -0.309507413331109 -0.117714374799592 0.340831522826537 -7.8556525932167 19.7533590190164 -0.764670767440147 -8.45039962310318 7.30360205529179 0.535714833009162 2.21237191827974 -21.5292106276415 -5.49910423238028 -22.0649254606506 -2.97704268571988 -28.2037586421196 35.9329336442156 -125.266982612616 125.810254242253
-0.0322500006482005 0.05444999679178 0.00564999974519014 16 0.0587825338045755 -0.334657716823071 -0.114559787531228 0.358573728302725 -11.5023326661741 15.3941505615599 -0.498298636884729 -12.4155523203959 8.93857940942184 0.944935432679377 7.90326593143115 -20.8573325965773 -5.8448239577689 -21.8022680292567 -8.40156456831588 -27.8097028819557 36.3222349642445 -102.478447681543 126.944073494042
-0.0294500006064773 0.05444999679178 0.00564999974519014 16 0.0156743065516154 -0.383231338953871 -0.0786684302131956 0.391536288170661 -15.1893802621225 5.52629959177477 -0.108644719434956 -9.54483550039147 11.1998660914992 1.78324338772257 15.9014309135431 -16.3908150604144 -5.64311451729762 -18.174058448137 -16.010075632978 -15.0711350921662 28.5264444895662 42.9786215430111 -63.9017000099692
-0.026650000564754 0.05444999679178 0.00564999974519014 16 -0.0291504271825154 -0.392396228560635 -0.0239060339486847 0.394203051805397 -13.9993137826151 -8.30302433052456 -0.0281826367038656 8.92969037353341 11.6648323043023 2.78799364886873 23.619626402531 -5.00551005888581 -3.64502658076688 -7.79350370775455 -23.6478090392349 17.232714704058 30.2807534330036 36.0613706791396 -66.0259705697514
-0.0238500005230308 0.05444999679178 0.00564999974519014 16 -0.0682641557852428 -0.333829512869318 0.0649752218784609 0.34687738191729 -10.2141896958167 -23.6582037438791 -0.366191462966643 36.1018019930095 9.04852317457103 3.37167664048999 24.3755685515944 13.2473204667789 -0.134568786675209 9.87564382628888 -24.7417600145611 59.7600057368885 65.428902751573 -724.191642590727 726.097761370796
-0.0210500004813075 0.05444999679178 0.00564999974519014 16 -0.0917462913195293 -0.186095975859983 0.127994624312657 0.243786213833156 -6.83223061016851 -37.2012451010378 -0.966328829319062 60.0063773338759 4.02673805492256 3.13985790163693 15.3406738064692 32.7583211596355 3.32534336275029 29.6184632579986 -16.3070026357883 97.2076224349137 102.919840459349 -2122.53544356018 2107.4387836
-0.0182500004395843 0.05444999679178 0.00564999974519014 16 -0.110677593946457 0.0100567311378351 0.163157399976626 0.197410751505809 -1.5117779444508 -45.0784970808253 -1.60930677624298 68.0440329072811 -1.63585659735597 2.15572110601801 1.24653527805363 45.6183699466437 5.41854262108222 43.4626488406256 -2.85584205429661 113.122529988106 121.218251385642 -2959.59367223884 2956.40577353593
-0.015450000397861 0.05444999679178 0.00564999974519014 16 -0.101734091043472 0.202316997194818 0.138595229487303 0.265500716140292 5.40186563173986 -44.514096834738 -1.89576098265321 58.0395037782645 -5.94520510173916 0.846839426443031 -9.54777165425893 47.5782545541294 5.39817724777523 46.7314151276863 7.65201067160572 102.553600613002 112.958485408781 -2493.43652824894 2490.13641477711
-0.0126500003561378 0.05444999679178 0.00564999974519014 16 -0.078854537010193 0.339478512360092 0.105003939645612 0.36399110662544 10.8842972167639 -35.4760603926031 -1.6267785648772 33.8778774154084 -7.67192440524029 -0.181286406115384 -10.5858597365725 39.9589431156167 3.32779113320263 40.140229521732 8.95908117169527 69.3539378080115 80.6317049985666 -1133.14535690525 1119.06338894913
-0.0098500003144145 0.05444999679178 0.00564999974519014 16 -0.0358397054672241 0.392797740177872 0.0694506066835796 0.400497111032699 14.2292972071195 -20.5758572638794 -0.782209232856546 7.01227727972956 -6.52604445876201 -0.590501592535491 -7.93308806136027 26.7471555499808 -0.0619236006268165 27.3376571425163 7.15087882850372 27.588134543609 39.4916159919797 -23.4835193100749 60.5344802865412
-0.00705000027269125 0.05444999679178 0.00564999974519014 16 0.00852474848429363 0.37726460498617 0.0491172944447802 0.380544034410824 15.4787341221078 -3.49652210864735 0.338845402274986 -14.054481532107 -3.34845692378506 -0.264745539578471 -8.4834011298437 10.4672278007472 -3.54474354588152 10.7319733403257 8.82224653211868 -10.5579594234596 17.4492920440447 61.4217392912375 -138.324688313195
-0.004250000230968 0.05444999679178 0.00564999974519014 16 0.0579834397633869 0.312392290023078 0.0129651395101488 0.317992322226771 17.1025264706736 12.6036600179543 1.31959592110236 -26.4258617647377 0.360395819269547 0.451677037130187 -13.4575622098706 -7.6227197478925 -5.55137221533848 -8.07439678502269 14.777158130973 -39.029521782692 42.5072212271679 -56.1352261833487 263.484626474912
-0.00145000018924474 0.05444999679178 0.00564999974519014 16 0.11018546740214 0.227796648608249 -0.0306588232261129 0.254896280446358 15.5547988012782 25.3931081011736 1.96947233388898 -32.0863824658576 3.08137103128268 0.95133259799035 -14.197056903273 -24.6085898786685 -5.35334592117975 -25.5599224766589 16.166529237162 -57.4794905670312 64.9504283314148 -761.086686906952 814.308885731056
0.0013499998524785 0.05444999679178 0.00564999974519014 16 0.149740789731344 0.131421299593349 -0.0668634391962163 0.210153709454098 9.17526663815175 33.4112885559099 2.17856131795633 -34.7497193338045 3.90916201095719 0.776463932373391 -6.87723041190056 -36.0498413215519 -3.48350051747775 -36.8263052539253 9.05579172985689 -68.1610078897144 78.0006866575644 -1190.52702141435 1194.29475941483
0.00414999989420176 0.05444999679178 0.00564999974519014 16 0.165534096956253 0.0310972346055011 -0.0684224137074974 0.181797145062269 0.257386139173507 36.6816601379654 2.03713649243127 -34.4851607638398 2.97312280930849 0.0276309377652059 2.4887362675007 -39.3965051905105 -1.54746366264518 -39.4241361282757 -0.451599775069434 -71.1668209018052 81.3583606587993 -1255.46224909996 1256.75775924634
0.006949999935925 0.05444999679178 0.00564999974519014 16 0.1533553703626 -0.0645130814914592 -0.0543302130590503 0.175018797143666 -6.22316283908645 36.5673044303248 1.79309373089602 -31.9193257153374 1.23945378549722 -0.679962323734082 5.03765043951777 -36.4992834980184 -1.12678843251204 -35.8193211742844 -3.24455670862175 -68.4866301456622 77.3561208071522 -1122.00954882013 1131.25484657387
0.00974999997764826 0.05444999679178 0.00564999974519014 16 0.130292636553446 -0.150625536727409 -0.0444223395319811 0.204052855172289 -7.90744855570194 34.7357298201154 1.7290366112407 -28.1287046296924 0.0671682782340408 -0.801503329619817 2.22401839737176 -31.5855953052554 -2.21727047832593 -30.7840919756356 -0.494981786131058 -62.8644344498078 69.9988745940046 -920.347371344037 964.76260746483
0.0125500000193715 0.05444999679178 0.00564999974519014 16 0.10617756485939 -0.224203317629484 -0.0454524989160321 0.252203752099863 -8.66386822508825 31.5909909787555 1.87738490642177 -25.5238516257842 0.19772321215552 -0.302052203418095 1.02830996589844 -27.1751573457506 -3.39880608368858 -26.8731051423325 0.849074940523323 -57.1148426045397 63.1267768382548 -758.190392897319 823.246654009814
0.0153500000610948 0.05444999679178 0.00564999974519014 16 0.0768386360009512 -0.295388783101613 -0.0378510962032791 0.307557172975251 -11.9694404944837 25.7845264225192 1.95224455176569 -23.2061705101203 1.79129450601284 0.538463712687146 5.94186017360838 -22.2391158944393 -3.5333838756617 -22.7775796071264 -3.98961562184269 -48.9906969326395 54.1740117723874 -493.917024106855 613.25761336578
0.018150000102818 0.05444999679178 0.00564999974519014 16 0.0322482760747274 -0.355367045662521 -0.00625263001963806 0.356882030697628 -17.8857055325831 15.3255477688356 1.70561189749564 -18.8059590229161 4.35556981569739 1.75947521110339 12.5253711853781 -13.6225971747384 -2.95915010407421 -15.3820723858418 -10.8197592878825 -34.1315067917517 38.9696689465844 22.350936255927 252.952086634524
0.0209500001445413 0.05444999679178 0.00564999974519014 16 -0.0316166798273723 -0.400362097256196 0.0400753991484332 0.403603098327543 -22.9986699684943 -0.710287100088947 1.29558655853263 -7.05146680012657 7.46317093186216 3.47214453822463 17.099211914253 0.43254472036632 -2.60878390953551 -3.03959981785831 -15.8036253557203 -6.34117970003762 17.2975229852387 58.2999750684387 -159.778178077788
0.0237500001862645 0.05444999679178 0.00564999974519014 16 -0.105349734624227 -0.391534008843009 0.0973958665635049 0.416993287103916 -23.2519399930862 -20.5433127143958 1.21801874248868 15.0364102590663 10.2693008688792 5.48347279773049 14.8898284208649 18.0040267368953 -2.98562414400894 12.5205539391648 -13.6718096783763 35.5797229734621 40.1198122838777 41.744213960912 -7.98288964842234