TITLE="DynamicStudio Exported Data"
VARIABLES= "X (m)[m]" "Y (m)[m]" "Z (m)[m]" "Status[-]" "U[m/s]" "V[m/s]" "W[m/s]" "Length[m/s]" "dU/dX[1/s]" "dU/dY[1/s]" "dU/dZ[1/s]" "dV/dX[1/s]" "dV/dY[1/s]" "dV/dZ[1/s]" "dW/dX[1/s]" "dW/dY[1/s]" "dW/dZ[1/s]" "Vorticity X[1/s]" "Vorticity Y[1/s]" "Vorticity Z[1/s]" "Vorticity Magnitude[1/s]" "Lambda-2[1/s²]" "Q-Criterion[1/s²]"
ZONE T="DynamicStudio Data" I=26 J=26 F=POINT
-0.0350500006899238 0.0600499968752265 0.00564999974519014 16 0.0616139068206152 0.32662742334612 0.0414575805445202 0.33496339826917 6.40893285147661 -2.29975764598051 4.12744816805889 -8.53587416923429 -10.1460073002379 -0.213860542304289 -4.45083289008249 2.39302831192882 -2.4923864063704 2.60688885423311 8.57828105814137 -6.23611652325378 10.9211686509453 34.9248811567091 -56.4589314369075
-0.0322500006482005 0.0600499968752265 0.00564999974519014 16 0.0795880856116613 0.302933400388186 0.0302409900041918 0.314670344834895 11.2876270708772 -1.44199656450422 3.7798752297172 -13.3668185231158 -9.92959929749191 -0.268721381372991 -10.2129838400726 1.69957860857795 -1.61303692394849 1.96829998995094 13.9928590697898 -11.9248219586116 18.4898807065385 118.719756185697 -94.486551414193
-0.0294500006064773 0.0600499968752265 0.00564999974519014 16 0.126637863318125 0.252195630241767 -0.0158191184668491 0.28264824225155 14.1192097458471 0.551880290638709 3.06104029151051 -20.9519574277931 -9.35845329749762 -0.442093577312186 -17.273039708296 -0.656166694367934 -0.354071750383836 -0.214073117055748 20.3340799998066 -21.5038377184318 29.5962104560471 79.0384684823274 -69.6732585954727
-0.026650000564754 0.0600499968752265 0.00564999974519014 16 0.161431098779043 0.186622383405532 -0.0706016492471099 0.256656397772162 11.0849885796221 3.22371821718217 2.05760622317141 -23.6270070235089 -8.33639151752955 -0.72850070121073 -21.8102461218769 -4.58109538404172 0.0487023370430055 -3.85259468283099 23.8678523450484 -26.8507252406911 36.1314033398413 17.2147740740127 25.431438242303
-0.0238500005230308 0.0600499968752265 0.00564999974519014 16 0.191930530865987 0.121618694716987 -0.147135665403524 0.270697875161408 4.6258513909889 5.72736784559765 0.776737183584505 -21.7259676355655 -6.69316478240769 -0.856200657160414 -17.8331710894917 -8.96619125070013 0.0911015236479053 -8.10999059353972 18.6099082730762 -27.4533354811632 34.1436123220861 -64.1209352829839 99.4575156771558
-0.0210500004813075 0.0600499968752265 0.00564999974519014 16 0.188367135127385 0.0690960573115202 -0.177233713335978 0.267709230089206 -1.79195716751 7.26021111782737 -0.687793714817768 -18.789876560504 -4.47223589131124 -0.492016684446426 -7.32079896717242 -12.5747599345594 1.27862391165734 -12.0827432501129 6.63300525235465 -26.0500876783313 29.471961440913 -99.1044345420471 125.200787627381
-0.0182500004395843 0.0600499968752265 0.00564999974519014 16 0.180776119629542 0.0223013740952592 -0.18978992176281 0.263054312106045 -5.44547083601797 7.76603211503651 -1.97395121191253 -17.3881714505317 -2.0667471276676 0.350136727810923 3.61608315257969 -15.0732741140608 4.08703605164818 -15.4234108418717 -5.59003436449222 -25.1542035655682 30.0310513171186 -127.310118854087 128.004482067411
-0.015450000397861 0.0600499968752265 0.00564999974519014 16 0.155926652749379 -0.0216964974273772 -0.153692421869685 0.220011862358399 -6.84280238664896 7.26733323415071 -2.78101283756423 -18.9757641494859 0.184716251369209 1.37500975327581 7.50795605151042 -16.355579959874 7.31577017169421 -17.7305897131498 -10.2889688890746 -26.2430973836366 33.3007034860142 -130.972855829281 131.29900082062
-0.0126500003561378 0.0600499968752265 0.00564999974519014 16 0.13951244354248 -0.0780685526225473 -0.143470482378034 0.214807355846021 -7.18954875995677 5.8139620517266 -3.03158600628615 -24.0055226117594 2.02982189819658 2.02179756896329 8.05525208252075 -16.4213970541933 8.89632571920967 -18.4431946231566 -11.0868380888069 -29.819484663486 36.7732385344415 -129.182711014575 136.692013334774
-0.0098500003144145 0.0600499968752265 0.00564999974519014 16 0.112260348796845 -0.152680019168183 -0.107108383453839 0.217682750743555 -11.1058279005464 3.22232592838943 -2.80331539336442 -29.6337653301706 3.64661711842366 1.94418286577 15.8113023458821 -14.6086720849686 8.09534491073348 -16.5528549507386 -18.6146177392466 -32.85609125856 41.2313440647924 -69.2647329172925 67.3320614142696
-0.00705000027269125 0.0600499968752265 0.00564999974519014 16 0.071948545773824 -0.241844443593097 -0.0525660233791374 0.257737298328586 -18.5755092070554 -0.467741718966867 -2.33431854724363 -33.1592694085235 5.4135480606214 1.18359966623061 31.0591143876576 -10.4428000962715 5.55818255571984 -11.6263997625021 -33.3934329349013 -32.6915276895566 48.1563133689894 -53.7412334343175 -104.364006874379
-0.004250000230968 0.0600499968752265 0.00564999974519014 16 0.00172752857208258 -0.337021636102048 0.0707041004517426 0.344362653864438 -28.2575665137849 -4.73851782733328 -1.76718247756776 -25.0495580800298 7.58002459023069 0.35136025876424 43.7603011988464 -4.14957946035742 2.20943905231244 -4.50093971912166 -45.5274836764141 -20.3110402526965 50.0554550914082 66.6858070068181 -299.786160390696
-0.00145000018924474 0.0600499968752265 0.00564999974519014 16 -0.093210855325063 -0.378774904226108 0.199704982758267 0.438224567728016 -34.7686171712014 -9.40856927852312 -1.16022186073662 0.109874768345966 9.78204764762827 0.260737013363933 42.7120746527127 4.0819381339387 -1.32259982228821 3.82120112057477 -43.8722965134494 9.51844404686908 45.0553077499342 96.5984195937606 -257.536102657712
0.0013499998524785 0.0600499968752265 0.00564999974519014 16 -0.20067586183548 -0.332178850623119 0.320227781902067 0.503149503255868 -33.4076021072381 -14.4333849683396 -0.564425926937271 39.6396630297861 10.7478622429915 1.22998281890391 28.5097060654909 13.9791980403029 -4.31150960682005 12.749215221399 -29.0741319924282 54.0730479981258 62.7036056354202 37.6358598082982 309.669341180733
0.00414999989420176 0.0600499968752265 0.00564999974519014 16 -0.288668954372406 -0.15412539817257 0.374585450712669 0.497391861077285 -20.4015861935795 -19.3021954605413 0.054813447582054 76.1518174314102 9.3464362621198 2.86625837670829 8.74111800384214 24.5646150238595 -5.68308355347736 21.6983566471513 -8.68630455626009 95.4540128919515 98.2737968392791 -1130.83415231961 1271.15481609254
0.006949999935925 0.0600499968752265 0.00564999974519014 16 -0.322149010101954 0.0923683181622376 0.38784245739691 0.512575518991556 2.86038896862369 -22.0849795730923 0.643679300813494 87.2374843603114 5.53090058194484 4.22110510558677 -10.1582399265798 32.6518226641664 -4.91061372883442 28.4307175585797 10.8019192273933 109.322463933404 113.474174508393 -1750.77084115065 1769.96407886595
0.00974999997764826 0.0600499968752265 0.00564999974519014 16 -0.273489133516947 0.327383996391048 0.331466899175042 0.540228555792399 25.3455269360113 -20.7146293811803 0.999731874895686 68.4489994213946 0.595017573095319 4.74836134664659 -20.4956304863185 34.6317630649951 -2.54151961464381 29.8834017183485 21.4953623612142 89.1636288025749 96.4635734489629 -977.33674218576 1223.09429575788
0.0125500000193715 0.0600499968752265 0.00564999974519014 16 -0.17292116522789 0.466741608811858 0.275091746062196 0.568704604809562 38.0831376744867 -14.8347471359729 0.91737723828434 30.6616296800352 -3.65158771574848 4.43202113043136 -21.7772372294393 29.0025952638362 -0.0288220005384395 24.5705741334049 22.6946144677236 45.4963768160081 56.4683888779196 131.896139938856 206.239045919735
0.0153500000610948 0.0600499968752265 0.00564999974519014 16 -0.0460322709878285 0.491393250570788 0.195840840096353 0.53098016095563 37.6724094373141 -6.39485783570434 0.454949332451601 -3.45181725318188 -5.91110553520755 3.69367377301794 -16.5935512456638 18.0647540041856 1.36637988613477 14.3710802311677 17.0485005781154 2.94304058252246 22.4909049805256 113.07144215609 -260.537544768255
0.018150000102818 0.0600499968752265 0.00564999974519014 16 0.0533593891064326 0.444056447362527 0.160544815506437 0.47519258268205 31.3906146552176 1.67421951523948 -0.104528557548136 -22.4358633853772 -5.91550254077599 2.99310501866498 -13.3572657908375 6.53651075046698 1.19500366654955 3.543405731802 13.2527372332894 -24.1100829006167 27.7396262741478 52.1808399619029 -138.64652690358
0.0209500001445413 0.0600499968752265 0.00564999974519014 16 0.14214568177859 0.366481122759869 0.0993765226138445 0.40544975204636 25.4381596326345 7.87614374141914 -0.389729091441598 -27.4056254666955 -4.51045937702893 2.48478928256581 -17.5287591101766 -2.51161285900394 -0.279566141497771 -4.99640214156975 17.139030018735 -35.2817692081147 39.5412901003249 2.52112909628468 94.6715447908337
0.0237500001862645 0.0600499968752265 0.00564999974519014 16 0.205251886049906 0.293158349668762 0.0448699452883253 0.360670856457426 19.3298843208642 12.2714118652166 -0.256121320351812 -23.9933726107203 -2.94087516424753 2.21479042835099 -20.0359701714162 -8.45539391738694 -1.74447698291191 -10.6701843457379 19.7798488510644 -36.2647844759369 42.6641517861206 17.9806306802749 222.590817749632
0.0265500002279878 0.0600499968752265 0.00564999974519014 16 0.25776578605175 0.234295383098215 -0.0230253135709669 0.349095534295495 11.481246149575 15.4590438817418 0.0951854704872136 -19.9042104941255 -1.97259975345315 2.02556292048246 -18.007811484053 -12.5955386603268 -2.04676832015762 -14.6211015808093 18.1029969545402 -35.3632543758673 42.3326690656842 -196.047372417403 292.817302007378
0.029350000269711 0.0600499968752265 0.00564999974519014 16 0.275436792771022 0.182201200869167 -0.0625563870350986 0.336119035416083 2.57033412530677 17.5481474693963 0.406941162301124 -14.9940774654434 -1.63369164957349 1.79340726263121 -8.08938813209507 -15.8380761201748 -1.10496817866195 -17.631483382806 8.4963292943962 -32.5422249348397 37.97437585355 -290.704634528996 289.580214752363
0.0321500003114343 0.0600499968752265 0.00564999974519014 16 0.275323441823323 0.149883640491559 -0.0706573071722717 0.321341809233222 -1.92888477929062 18.4825418808157 0.54378783081765 -8.98700785561042 -1.55014382276027 1.59239179234019 -1.03360383873304 -17.9277964612512 0.227976012890165 -19.5201882535914 1.57739166955069 -27.4695497364261 33.7357685055017 -181.251919786433 197.409799959578
0.0349500003531575 0.0600499968752265 0.00564999974519014 16 0.265478766361872 0.131574739501812 -0.0689879763840387 0.304220690206231 -3.24793309652464 18.5955524196574 0.547144013784382 -6.41893801805963 -1.52829036417191 1.47385477297015 0.73104677859802 -18.796863803273 0.846119518569294 -20.2707185762432 -0.183902764813638 -25.0144904377171 32.1972139118091 -113.238083246108 147.590086917727
-0.0350500006899238 0.0572499968335032 0.00564999974519014 16 0.0677779030799865 0.355699967095182 0.0366642160220848 0.363951336683832 5.72883705276422 -2.55006180144162 3.64053126853764 -8.6728574332728 -12.4116407961651 0.0405524147743763 -4.11008229218151 5.21259215114433 -1.49203947932297 5.17203973636995 7.75061356071915 -6.12279563183118 11.1494677878078 26.7349272423959 -68.4980832089001
-0.0322500006482005 0.0572499968335032 0.00564999974519014 16 0.0844575043519338 0.331422413656013 0.0243435861216858 0.34287971141524 9.6537093390823 -0.975365830568078 3.30273247768666 -13.5932990133626 -12.2116352188207 0.06544036789185 -8.350368940446 3.46754362000099 -0.542490107972455 3.40210325210914 11.6531014181327 -12.6179331827946 17.5094636412645 81.0279356544313 -102.406249482937
-0.0294500006064773 0.0572499968335032 0.00564999974519014 16 0.124274029334386 0.279362727539265 -0.0122672599103923 0.306003355489593 11.5732688358341 2.53986719285882 2.65002754958572 -21.5646144483553 -11.5628797080098 -0.0111490396776182 -13.7107782957245 -1.17208425788189 0.88264009353694 -1.16093521820428 16.3608058453102 -24.1044816412141 29.1556130733078 61.7116880237093 -42.7190161563913
-0.026650000564754 0.0572499968335032 0.00564999974519014 16 0.153011352221171 0.210748060195874 -0.0581510537598903 0.266849702713458 8.13267476091344 7.14750927939937 1.77454204270858 -24.6267558239108 -10.2911611470351 -0.264152339763235 -16.927823720935 -8.30845850817075 1.45743916953204 -8.04430616840751 18.7023657636436 -31.7742651033101 37.7371603296223 -83.8309674594372 117.023872775484
-0.0238500005230308 0.0572499968335032 0.00564999974519014 16 0.173640896479289 0.141678612237059 -0.11754238953746 0.253061659351483 2.43021984112077 11.4609047718377 0.659567169950919 -23.311401931286 -8.25372029595339 -0.509128334427662 -13.5966504290131 -15.9657029473718 1.46794044742514 -15.4565746129441 14.2562175989641 -34.7723067031236 40.635683240849 -180.675116946177 239.402163437681
-0.0210500004813075 0.0572499968335032 0.00564999974519014 16 0.168783459266027 0.081278473581624 -0.142513250259993 0.235380697783894 -2.77191013224769 14.1255415290336 -0.652568289776671 -20.7567684113457 -5.44170377975672 -0.395742278613157 -4.8084576945939 -21.5117086524758 2.33039359669627 -21.1159663738627 4.15588940481723 -34.8823099403793 40.9869613343543 -251.190008739736 277.492615167306
-0.0182500004395843 0.0572499968335032 0.00564999974519014 16 0.157512216567993 0.0282481602012801 -0.143894004446144 0.215205811813869 -5.33198894940782 14.8234056080914 -1.88924173359778 -19.3622524036446 -2.30256056368327 0.195919887112475 4.48489446485473 -24.0600231774956 4.69882523235327 -24.255943064608 -6.37413619845251 -34.185658011736 42.3985801640256 -285.24790778298 276.60522127525
-0.015450000397861 0.0572499968335032 0.00564999974519014 16 0.136108169953028 -0.0234304209457089 -0.108720715741316 0.175768633677797 -5.7291394398951 13.7624937350227 -2.70167808679225 -20.6764301226164 0.621698569547867 1.06566991880473 7.3039842265867 -24.2974273829092 7.53763339824317 -25.3630973017139 -10.005662313379 -34.438923857639 43.9253851381845 -288.684961824689 288.125476944292
-0.0126500003561378 0.0572499968335032 0.00564999974519014 16 0.12211373925209 -0.0841535314853536 -0.0943623165700895 0.175777782908016 -5.42713484312108 11.3708739322412 -2.96241586072763 -25.2642533790548 2.96606009436456 1.69910543681227 7.2200317517039 -23.2362961957288 8.95780408230246 -24.9354016325411 -10.1824476124315 -36.635127311296 45.4707493568218 -287.808963432374 310.003260422998
-0.0098500003144145 0.0572499968335032 0.00564999974519014 16 0.102816685040792 -0.163163437047042 -0.0648952362748484 0.203482111260302 -8.12373883624975 7.49024965888789 -2.75701264334771 -30.8395894537778 4.89168324519143 1.71070858974823 12.9304114216322 -20.1244265970703 8.14209968332915 -21.8351351868185 -15.6874240649799 -38.3298391126657 46.8192798836546 -214.276787159219 235.018085644843
-0.00705000027269125 0.0572499968335032 0.00564999974519014 16 0.07305992603302 -0.256911025502486 -0.0211776556827439 0.267935665630588 -14.7002614618018 1.86293539845638 -2.35540969778839 -34.4732961521829 6.82255713172543 1.1043804586511 26.0681887088719 -13.641233990267 5.57465759532207 -14.7456144489181 -28.4235984066603 -36.3362315506392 48.4319710022307 -27.66657874171 -3.52097750904234
-0.004250000230968 0.0572499968335032 0.00564999974519014 16 0.0146702281634012 -0.357612458512497 0.0834930110862478 0.367522746204867 -23.6614961021773 -5.18479072228266 -1.97803949916731 -26.8937077348641 9.25857468701596 0.450723779614122 36.6780248925061 -3.66577221711228 2.22616957518594 -4.1164959967264 -38.6560643916734 -21.7089170125814 44.5254301652821 119.000691021747 -316.370487970557
-0.00145000018924474 0.0572499968335032 0.00564999974519014 16 -0.0678529342015584 -0.407147246785462 0.189727389656667 0.454278971151731 -29.7956496294704 -13.197144858558 -1.66275685038035 -1.86212346476277 12.3407148891597 0.512187064460213 34.4821264774181 8.90261306642397 -1.19578145170179 8.39042600196376 -36.1448833277984 11.3350213937952 38.7986410750736 164.715784071841 -318.626454156966
0.0013499998524785 0.0572499968335032 0.00564999974519014 16 -0.16133327126503 -0.363202553164641 0.282175690540025 0.48740910883377 -28.3475557996413 -21.5552201446136 -1.39417122036389 38.5008910700656 15.1295468835346 1.55514150819415 19.4259311560876 22.9172495156672 -3.85230998149068 21.3621080074731 -20.8201023764515 60.0561112146792 67.0563406078708 -152.522849168922 443.372884128848
0.00414999989420176 0.0572499968335032 0.00564999974519014 16 -0.234814042250315 -0.181893937054944 0.305286555203299 0.425937694461499 -16.1748250457942 -29.2190907692619 -1.05678418052163 77.1492647076553 15.738013560634 3.12068511196034 -0.00567767206394573 37.2193477731244 -4.75177959377718 34.0986626611641 -1.05110650845768 106.368355476917 111.705195344871 -1884.17863202513 1885.59151971823
0.006949999935925 0.0572499968335032 0.00564999974519014 16 -0.257568564414978 0.0767739746828253 0.292078463353585 0.396920190111795 3.82656053747607 -33.4844287817158 -0.631713627161032 90.7231343966848 12.5267614747405 4.2954557856834 -15.1099216391338 48.2220892814822 -3.58510022359084 43.9266334957989 14.4782080119728 124.207563178401 132.539376746039 -2739.82408555681 2810.43744947233
0.00974999997764826 0.0572499968335032 0.00564999974519014 16 -0.214088914394379 0.326131002992915 0.231235547983476 0.453503443240453 21.8742241691322 -31.4360809809932 -0.255264497682777 73.1163419721556 6.01906322388923 4.64089089220316 -19.1383015559877 51.1564619300959 -1.12565061694391 46.5155710378928 18.8830370583049 104.552422953149 115.980500873641 -2044.18880711526 2156.45860217375
0.0125500000193715 0.0572499968335032 0.00564999974519014 16 -0.129261840581894 0.478421900703494 0.189416820181844 0.530542053254183 30.7279116492757 -22.5695129373056 -0.111325065764756 34.4812644527469 -1.05237900330222 4.24318709085118 -13.6477266684869 43.5460117058657 1.14164130162916 39.3028246150145 13.5364016027221 57.0507773900525 70.5885075056704 -306.13721063859 593.473540045099
0.0153500000610948 0.0572499968335032 0.00564999974519014 16 -0.0310858436425527 0.509233570554449 0.148608757472054 0.531384721131489 29.408513177426 -9.76368708562938 -0.249947355440041 -1.94657142761247 -5.62408699509695 3.51141195890888 -5.57234552075665 28.0412425065563 2.18073820253392 24.5298305476474 5.32239816531661 7.81711565801691 26.2896901110925 156.733018512513 -232.391291320878
0.018150000102818 0.0572499968335032 0.00564999974519014 16 0.0477742727597554 0.461526512737716 0.143386595338294 0.485642686365468 24.4671593484824 2.73397203067933 -0.504694738488405 -23.0136126498331 -6.5501178876877 2.83268327821028 -3.35781192578615 10.8633306678374 1.76831994093525 8.03064738962708 2.85311718729775 -25.7475846805124 27.1213880924472 56.1840374561108 -98.1281882424108
0.0209500001445413 0.0572499968335032 0.00564999974519014 16 0.116953698396683 0.37856412566655 0.111568330993086 0.411626599348153 20.3474513608337 12.6808275338222 -0.61127994895203 -28.7915994455299 -5.05474236564645 2.34851403190688 -10.1193638929836 -3.52947721124993 0.292374817305825 -5.87799124315681 9.5080839440316 -41.4724269793521 42.9524928368433 0.143316868372459 268.824648075684
0.0237500001862645 0.0572499968335032 0.00564999974519014 16 0.171123007535934 0.30078624711372 0.0693049890532469 0.352928649543459 15.6480401728771 19.988290579011 -0.467926598321503 -25.0263464551999 -3.15898927992627 2.13081012146653 -15.2387846459395 -13.7547976011252 -1.06950037615838 -15.8856077225917 14.770858047618 -45.0146370342108 49.9684733357013 -272.84784450067 459.623078576961
0.0265500002279878 0.0572499968335032 0.00564999974519014 16 0.21217931787173 0.238944898221331 0.0143088870809637 0.319874149577628 8.7760921679097 25.312744703155 -0.242052498613729 -20.3089290391317 -2.04405536070532 2.05857788912204 -14.4375641335509 -20.7421822294573 -1.17823762056358 -22.8007601185794 14.1955116349372 -45.6216737422866 52.9407624388833 -474.282637564327 527.408727928182
0.029350000269711 0.0572499968335032 0.00564999974519014 16 0.225849001804988 0.18709249621102 -0.016300434381507 0.293729599999397 1.08805060066231 28.8038143469132 -0.106426943281596 -15.1186349986529 -1.62774865044947 1.97821018739948 -5.86091374033698 -25.4600581517682 0.108829128901954 -27.4382683391677 5.75448679705539 -43.9224493455661 52.1071419698248 -482.850925114273 483.386135187856
0.0321500003114343 0.0572499968335032 0.00564999974519014 16 0.221526414553324 0.154485042072677 -0.0178538359773423 0.270662779170233 -2.46167004224678 30.5074183307074 -0.0968851578131969 -9.13161224785715 -1.3864360005976 1.88337795776695 0.0558366187380566 -28.0813995539719 1.80036315734209 -29.9647775117389 -0.152721776551254 -39.6390305785645 49.6906828336804 -307.016618494528 327.960173185086
0.0349500003531575 0.0572499968335032 0.00564999974519014 16 0.21361167828242 0.136495147609773 -0.0143478376486261 0.253903002866916 -3.05521598352361 30.9382943763826 -0.123962840908647 -6.49524246435425 -1.22368127911545 1.80031081603105 1.27762530852218 -29.0633437407438 2.62223764839504 -30.8636545567748 -1.40158814943083 -37.4335368407368 48.5365769533386 -213.878831602195 245.951478664509
-0.0350500006899238 0.05444999679178 0.00564999974519014 16 0.076784497499466 0.396983848389549 0.0134848062802727 0.404566280031886 3.86340447990797 -0.954689772952455 2.79087751256443 -8.96291884591128 -13.5884175344036 0.387128083773602 -2.91400441991414 1.17067457748054 -0.0572237502852879 0.783546493706942 5.70488193247857 -8.00822907295882 9.86363806393482 2.62999476406533 -52.8184300155682
-0.0322500006482005 0.05444999679178 0.00564999974519014 16 0.0880481759707132 0.372647118496448 0.00674067137685291 0.382967091100641 5.84684070061336 1.89929375226169 2.4750151613104 -13.9744279622354 -13.310607025329 0.572011926756788 -4.39552213976231 -1.43781631614893 0.973554816991866 -2.00982824290572 6.87053730107272 -15.8737217144971 17.4131770059547 -5.04785984476227 -46.8484088246773
-0.0294500006064773 0.05444999679178 0.00564999974519014 16 0.111010862986247 0.319605114960771 -0.00653116381571939 0.338398429829139 5.80797693537754 7.95622126776029 1.94370548581949 -22.621611855462 -12.5212361801604 0.738535963982262 -6.52208846089142 -7.9417250737828 2.5973948055552 -8.68026103776507 8.46579394671091 -30.5778331232223 32.8940796701099 -19.6223840120945 108.364782431397
-0.026650000564754 0.05444999679178 0.00564999974519014 16 0.12259215037028 0.246110839596561 -0.0251595494306336 0.276102125357423 1.81671461073817 15.4298312318516 1.30849939905571 -26.3782579770416 -10.9844551808976 0.630503446195808 -7.26446805052844 -17.6573963287336 3.44708618843071 -18.2878997749294 8.57296744958415 -41.8080892088932 46.4312327250555 -291.390177587403 376.093057974034
-0.0238500005230308 0.05444999679178 0.00564999974519014 16 0.121829003890355 0.171281391705076 -0.0446532468734464 0.214880277805304 -2.2423825646511 22.1049982953604 0.479398864672741 -25.8882220708754 -8.69357373925909 0.264409554230754 -5.0298337990235 -28.2303241899288 3.56920259367354 -28.4947337441596 5.50923266369624 -47.9932203662357 56.0861007453304 -504.221572187539 562.596443367411
-0.0210500004813075 0.05444999679178 0.00564999974519014 16 0.109225908120473 0.0993721703449652 -0.0534056151549642 0.157026389418757 -4.73054425748938 26.071598069178 -0.609124052530524 -23.9540107072994 -5.73152781991264 -0.0288879300970725 -0.0538555136280958 -36.0057372957802 4.04507012370723 -35.9768493656832 -0.555268538902428 -50.0256087764774 61.6214536252475 -590.691479987133 608.239834217448
-0.0182500004395843 0.05444999679178 0.00564999974519014 16 0.0928783476352693 0.0352299863802424 -0.0450883654411882 0.109089413317554 -4.73535674116737 26.7357359071214 -1.78369825620191 -22.6033807338652 -2.43230040981173 0.067915363662235 5.10701563176119 -38.8341461186328 5.59964445679309 -38.902061482295 -6.8907138879631 -49.3391166409867 63.2076004636382 -602.212639492163 587.446306450139
-0.015450000397861 0.05444999679178 0.00564999974519014 16 0.0793843972682953 -0.0280184470171419 -0.0206186077488625 0.0866720421381911 -3.1094664155736 24.5803425476282 -2.60802849434059 -23.5482271816432 0.756365846204631 0.579475281310982 5.19332523733652 -37.1082040908754 7.57012806258721 -37.6876793721864 -7.80135373167712 -48.1285697292714 61.6245204500029 -580.409838910125 593.705950867087
-0.0126500003561378 0.05444999679178 0.00564999974519014 16 0.0726698875427245 -0.095873976992134 -0.00792079262224432 0.120563141032096 -1.61202924791834 20.5371837308855 -2.88124078405325 -27.3580753931895 3.37762339454954 1.10840945018627 3.72225044665324 -32.5608949837549 8.56728678620335 -33.6693044339412 -6.60349123070649 -47.895259124075 58.9167548670301 -561.838604456508 618.354848076988
-0.0098500003144145 0.05444999679178 0.00564999974519014 16 0.0681085300445556 -0.180903641505477 0.00914185223945727 0.193516079014485 -2.22464633954121 14.7036099123275 -2.69334698960874 -32.3334723643819 5.03970516846149 1.24730765085902 6.09892250575899 -25.3434943614896 7.77539171767699 -26.5908020123486 -8.79226949536773 -47.0370822767094 54.7436011205422 -477.457501493092 534.133037191999
-0.00705000027269125 0.05444999679178 0.00564999974519014 16 0.0593943325678508 -0.279801173984548 0.0299987172028826 0.287604427535687 -6.93438237932322 6.66595259357183 -2.36661736653038 -35.5228522320351 5.65227027238379 0.939354081664884 15.5523476859295 -14.4793570294774 5.3717256682341 -15.4187111111422 -17.9189650524599 -42.1888048256069 48.3603268546987 -219.244723059111 241.119190322174
-0.004250000230968 0.05444999679178 0.00564999974519014 16 0.028620999654134 -0.386509065243493 0.0945877698678911 0.398942684285828 -14.0200152737136 -3.69368119663144 -2.22450950903929 -28.7262129677171 6.09831402979849 0.633992409004999 22.5295925330236 0.209454579792743 2.25072965142468 -0.424537829212256 -24.7541020420629 -25.0325317710856 35.207576558856 77.12401747006 -159.4490361995
-0.00145000018924474 0.05444999679178 0.00564999974519014 16 -0.0209752686818441 -0.447935367955167 0.151393841232639 0.47329288070346 -19.0400238903927 -16.0784336278975 -2.30750146298357 -4.97403972086944 7.9605953166144 0.925456133255458 18.6489043355503 17.6227237976067 -0.780362224678336 16.6972676643513 -20.9564057985339 11.104393907028 29.0047798731563 120.248779024804 -196.175408780452
0.0013499998524785 0.05444999679178 0.00564999974519014 16 -0.08234574953715 -0.417847340984445 0.195108787006272 0.468449209201664 -17.356669123809 -29.4668707567517 -2.56573417436478 34.7789791555916 12.0055914928201 1.90981679944351 2.59403353824258 36.2732071080762 -2.72602128684896 34.3633903086327 -5.15976771260737 64.2458499123434 73.0410502889358 -780.331909225621 768.418176376564
0.00414999989420176 0.05444999679178 0.00564999974519014 16 -0.124614757299423 -0.249132620723297 0.165854667037008 0.324196963315835 -7.39646924370396 -41.5722426100261 -2.75624502068392 75.6201748212948 16.6481266165551 3.10473369201225 -15.6593318284225 54.4566606248226 -2.80956285154998 51.3519269328104 12.9030868077386 117.192417431321 128.598494362406 -2746.1246034084 2782.3354001531
0.006949999935925 0.05444999679178 0.00564999974519014 16 -0.12764524380366 0.0176358746434562 0.108810545812982 0.168653690206454 5.56797860023931 -47.8266784624257 -2.69125100827198 93.5746703609935 18.5369326245004 3.81905598445494 -23.5723533349818 67.5700049686713 -1.10714958378149 63.7509489842163 20.8811023267098 141.401348823419 156.507333310133 -4087.95502248063 4230.39842179508
0.00974999997764826 0.05444999679178 0.00564999974519014 16 -0.0922550137837728 0.291209702802201 0.0347862356571325 0.307447817955477 14.3512032206745 -44.0934233774538 -2.33861844872365 79.4732089149122 15.8362279682864 3.87060539259541 -15.8253627131974 69.7851251731152 1.29582411411885 65.9145197805198 13.4867442644738 123.566632292366 140.69587344634 -3182.51501997553 3463.512207933
0.0125500000193715 0.05444999679178 0.00564999974519014 16 -0.0411571300029754 0.477227956784579 0.0187411111859061 0.479365895048185 15.6043115451999 -30.3133703686078 -1.80944437569213 41.1360367422393 9.89603096322891 3.48452471848762 1.85176719113843 58.5831426949299 2.956506807111 55.0986179764423 -3.66121156683056 71.4494071108471 90.3010517632136 -989.688757454516 1276.00086460709
0.0153500000610948 0.05444999679178 0.00564999974519014 16 0.00238993128140774 0.527981464977687 0.0432604913807396 0.529756179054116 12.5292034697107 -11.116286408493 -1.34298488093083 1.61734271155387 4.24905252636493 2.93052812442428 15.4960502487128 37.5200222651445 3.31372046248562 34.5894941407202 -16.8390351296436 12.7336291200468 40.523221979196 165.833522924399 37.6720193987886
0.018150000102818 0.05444999679178 0.00564999974519014 16 0.0353679831822713 0.484567035176636 0.102741432970312 0.49660035024459 10.2013437715587 7.53117975983725 -1.02159060079895 -22.8078498489713 1.40540647892754 2.40993683150821 16.2752314082751 13.9964950003327 2.54423077610086 11.5865581688245 -17.296822009074 -30.3390296088085 36.7951776652498 -99.8907871077545 198.533257595298
0.0209500001445413 0.05444999679178 0.00564999974519014 16 0.0642658551534017 0.394125528104293 0.130218411031334 0.420026030876196 9.70277395719697 22.4948172372548 -0.817477894917109 -30.1810954266873 1.09376413718183 2.03408205465515 5.32099035802277 -6.68409470564762 1.19777383110352 -8.71817676030278 -6.13846825293988 -52.675912663942 53.7442013011216 -600.930272867859 720.408371714123
0.0237500001862645 0.05444999679178 0.00564999974519014 16 0.0929006783167521 0.309385589497979 0.126237242868131 0.346822462518898 8.0956873356756 33.3843844329042 -0.706319846331571 -26.0872523364577 1.64841291387681 1.93298614497179 -4.53670974063311 -22.6012034720852 0.205792498677722 -24.534189617057 3.83038989430154 -59.4716367693619 64.4474508955551 -847.727089041028 926.740604131414