TITLE="DynamicStudio Exported Data"
VARIABLES= "X (m)[m]" "Y (m)[m]" "Z (m)[m]" "Status[-]" "U[m/s]" "V[m/s]" "W[m/s]" "Length[m/s]" "dU/dX[1/s]" "dU/dY[1/s]" "dU/dZ[1/s]" "dV/dX[1/s]" "dV/dY[1/s]" "dV/dZ[1/s]" "dW/dX[1/s]" "dW/dY[1/s]" "dW/dZ[1/s]" "Vorticity X[1/s]" "Vorticity Y[1/s]" "Vorticity Z[1/s]" "Vorticity Magnitude[1/s]" "Lambda-2[1/s²]" "Q-Criterion[1/s²]"
ZONE T="DynamicStudio Data" I=26 J=26 F=POINT
-0.0350500006899238 0.0600499968752265 0.00564999974519014 16 0.175475825270017 -0.211413497745913 -0.297465538464021 0.404936018226392 -7.65167018675255 7.85806103475089 3.18234085079046 -7.13336152435448 4.77299485524935 1.02697568866326 9.72222306031538 -25.2442022477472 -3.88168491457413 -26.2711779364105 -6.53988220952492 -14.9914225591054 30.9465280738673 18.6873859129209 25.6928727969354
-0.0322500006482005 0.0600499968752265 0.00564999974519014 16 0.15371420999368 -0.230961689834173 -0.268353827514996 0.38598592884584 -14.1647952671131 6.79898762198284 3.33758038891033 -10.024403558965 5.37836248186749 1.23161842008954 16.2569098738133 -22.9088407893376 -4.44606116995037 -24.1404592094271 -12.919329484903 -16.8233911809479 32.1356085364614 26.3272231035101 4.9936166359726
-0.0294500006064773 0.0600499968752265 0.00564999974519014 16 0.093315409819285 -0.265039768050774 -0.200915531363959 0.345428567292011 -26.7987609489123 3.82857108253334 3.20263325180186 -13.8339608024118 6.36739335835171 1.92074848251886 34.2230641129365 -16.9391602196751 -5.01482361762437 -18.859908702194 -31.0204308611346 -17.6625318849451 40.3723707459969 -5.76140380465664 -92.2823022791902
-0.026650000564754 0.0600499968752265 0.00564999974519014 16 -0.00477490345636999 -0.305077207873498 -0.0616306733712554 0.311276793813965 -36.1675791769059 -1.42974405532938 2.52286304345673 -9.36244464013613 7.23951198429755 2.99238704694935 49.7964864255897 -7.14255816722316 -4.62834412711497 -10.1349452141725 -47.2736233821329 -7.93270058480675 48.9942886542729 27.8450987041746 -245.588889317564
-0.0238500005230308 0.0600499968752265 0.00564999974519014 16 -0.122788073221842 -0.314032220190469 0.101393589986643 0.352099142761903 -39.0617105788447 -8.45098393010433 1.6009594237851 5.288689609958 7.89539245004054 3.96544316952116 54.6188591951098 4.74481870633367 -3.45322487385845 0.77937553681251 -53.0178997713247 13.7396735400623 54.7748459731025 27.4689971357685 -262.346485170292
-0.0210500004813075 0.0600499968752265 0.00564999974519014 16 -0.239551775852839 -0.273242068841234 0.269707401626123 0.452535483681447 -29.8700870624416 -15.5182215364093 0.884771925177711 28.0082888293123 8.44898282059245 4.03779599823893 42.0246470480448 15.4679682832756 -2.10854679295254 11.4301722850367 -41.139875122867 43.5265103657216 60.9729060174106 -41.2620581592409 127.795650810781
-0.0182500004395843 0.0600499968752265 0.00564999974519014 16 -0.303249120314916 -0.15731088155997 0.35616567659153 0.493518724681088 -11.1599998413223 -20.238996941642 0.688588230529241 51.4509634896533 8.56970086026863 3.03208292979778 12.865876121644 21.5602126097835 -1.82736301665602 18.5281296799857 -12.1772878911148 71.6899604312952 75.0401782811191 -903.394926564996 876.17980554116
-0.015450000397861 0.0600499968752265 0.00564999974519014 16 -0.307608656088511 0.0118527073905958 0.345950725122045 0.463082580308886 10.8892551286771 -20.7150531536416 0.866081789239263 61.8458837806324 7.05602692403606 1.65101261300639 -16.4474261756329 21.3216649593649 -2.74456305913687 19.6706523463585 17.3135079648722 82.5609369342739 86.6198616325733 -1098.94840617728 1287.76616752508
-0.0126500003561378 0.0600499968752265 0.00564999974519014 16 -0.238307809829712 0.181758219292412 0.255545912833186 0.393865936673799 26.2871416655585 -16.5972527777328 1.09009995378286 51.3322041135735 3.32553955174399 0.755024810809081 -32.3261436972592 15.7175778262206 -3.80949022485022 14.9625530154116 33.4162436510421 67.9294568913063 77.1682217368824 -116.818039290823 849.954843519089
-0.0098500003144145 0.0600499968752265 0.00564999974519014 16 -0.14848338842392 0.289831598969176 0.14862417148853 0.357964826134538 31.4970194305585 -9.07549223688007 1.26234220145061 25.0580395512981 -1.49126304908653 0.575399693546072 -29.7606121742844 7.11543945752286 -3.83074272846505 6.54003976397679 31.022954375735 34.1335317881781 46.5864122963756 18.1479336211038 98.9732241209695
-0.00705000027269125 0.0600499968752265 0.00564999974519014 16 -0.0451062742869059 0.313130529608655 0.0730026980642773 0.324676297991871 31.4321909678767 -0.40356028992403 1.51977094493556 -0.807244698670946 -5.3399647825278 0.568469541115108 -19.4757206393836 -1.35491263907791 -2.1784829248499 -1.92338218019301 20.9954915843192 -0.403684408746916 21.0872716817555 27.5337762927071 -194.645173001285
-0.004250000230968 0.0600499968752265 0.00564999974519014 16 0.0442817878723145 0.279751134779605 0.0301410199919095 0.284833381529971 28.5905305273626 6.7916528388919 1.86676719652132 -13.8058548420387 -6.67346762013241 0.325537788563521 -14.2770494427814 -7.3594583913338 -0.029004922620075 -7.68499617989732 16.1438166393028 -20.5975076809306 27.2752507712479 -3.37055670864701 -68.621399826546
-0.00145000018924474 0.0600499968752265 0.00564999974519014 16 0.12644048611323 0.235293738032536 -0.0113730128400493 0.267356849747549 25.7322747821372 10.8810821138894 2.18616024186495 -15.6868368124658 -5.67428046796064 -0.0413073020998452 -15.1674866640621 -10.2373955879317 0.898727330951806 -10.1960882858319 17.353646905927 -26.5679189263552 33.3311204933986 0.979090345162141 75.4399600870959
0.0013499998524785 0.0600499968752265 0.00564999974519014 16 0.193125112056732 0.194609682110798 -0.0569386979239061 0.280021878787107 19.3210145821906 11.9639436395091 2.3217870374822 -15.8108239667045 -3.2436325220195 -0.196902241732444 -17.9567326131763 -11.0300993971696 -0.332785651206678 -10.8331971554371 20.2785196506585 -27.7747676062136 36.0557101637159 9.98781124608235 160.659071235026
0.00414999989420176 0.0600499968752265 0.00564999974519014 16 0.234166538715363 0.152477333174514 -0.117070971902382 0.302966858662979 11.3077768701433 11.4826558191135 2.20935102512224 -21.0334164283384 -0.316417258655368 -0.1447095687196 -16.7869457612153 -11.4277853379222 -2.91140552455127 -11.2830757692026 18.9962967863376 -32.5160722474519 39.3123650370935 -170.521050533791 241.375746631285
0.006949999935925 0.0600499968752265 0.00564999974519014 16 0.254713086684545 0.0823467731693139 -0.157269183890894 0.310472774621986 3.7384457920463 11.1799038581588 1.89308842986714 -28.8369789922043 2.13987849821319 -0.253753337197993 -13.3023851872882 -12.0948088689686 -4.99932131577082 -11.8410555317706 15.1954736171553 -40.0168828503631 44.4124298774096 -332.930252671643 323.120333908836
0.00974999997764826 0.0600499968752265 0.00564999974519014 16 0.254787667592367 -0.00560356449956695 -0.195972397070533 0.321486136413112 -3.34306331445307 11.696534606937 1.44548946168077 -34.0510026955163 3.75272908062651 -0.534472414266695 -6.93916624614062 -12.5840662339464 -5.50961800649881 -12.0495938196797 8.38465570782138 -45.7475373024533 48.0451072617943 -382.095272231977 386.78067404883
0.0125500000193715 0.0600499968752265 0.00564999974519014 16 0.236840263605118 -0.106641431914327 -0.195611423641288 0.325160782574177 -9.1255568066657 12.4389790628506 1.11379937516099 -33.6743561113955 4.56557664894071 -0.663703719212646 1.62843481280817 -12.111372042087 -4.5996770706299 -11.4476683228744 -0.51463543764718 -46.1133351742461 47.5158251591676 -357.003367200511 388.333505387447
0.0153500000610948 0.0600499968752265 0.00564999974519014 16 0.204568305412928 -0.193337264313207 -0.182262714152457 0.335331457399768 -15.8099198003866 12.2970946252069 1.04360905295627 -28.5886063925733 5.04362730821037 -0.134952029889882 13.2247673455548 -10.2894993927815 -2.94478176409686 -10.1545473628916 -12.1811582925985 -40.8857010177803 43.8535745089254 -70.3176271295513 288.33176080965
0.018150000102818 0.0600499968752265 0.00564999974519014 16 0.146716117660205 -0.263860021019354 -0.113243793104193 0.322446718932357 -22.78286590731 10.5269282906783 1.13804022904036 -22.7935370756837 5.38951069619138 1.1406991235145 28.1266624174196 -7.02448065976586 -1.05535829905948 -8.16517978328036 -26.9886221883792 -33.3204653663619 43.6498488055949 -4.66532183558715 111.517198151919
0.0209500001445413 0.0600499968752265 0.00564999974519014 16 0.072285104195277 -0.317790063830325 -0.0136492227631 0.326193136408234 -29.8261048351383 7.32470854018022 1.16327345293519 -17.730246655324 5.48106264291511 2.6772200370393 43.4664207246561 -3.12729229812268 0.335773919244966 -5.80451233516198 -42.3031472717209 -25.0549551955042 49.5075692434064 28.2085802829497 -83.9751738517506
0.0237500001862645 0.0600499968752265 0.00564999974519014 16 -0.0274180634816488 -0.360280635678985 0.138942730516816 0.387116221584431 -34.4554091720297 2.61102823404689 0.903675064933784 -11.8549460146807 5.58652618862106 3.69345702336436 49.984632207744 0.601667483712515 0.453213813531122 -3.09178953965184 -49.0809571428102 -14.4659742487276 51.2617199045909 48.6589669049309 -222.008322220532
0.0265500002279878 0.0600499968752265 0.00564999974519014 16 -0.131842001080513 -0.382858037946135 0.271383588954935 0.487454246902147 -31.3383799599786 -4.21604105744793 0.518009460957595 -2.93394201544974 6.07041541373256 3.0985640344897 37.3086680635317 4.06164247497151 -1.11905446803519 0.963078440481808 -36.7906586025741 1.28209904199819 36.825587007503 41.7869857412697 -206.241878450676
0.029350000269711 0.0600499968752265 0.00564999974519014 16 -0.218265738089879 -0.378347939107334 0.348610936554226 0.558853004408048 -21.5245735260431 -12.9033009772008 0.322110981625931 6.60809361194977 6.74052931640043 0.584558561558492 11.4850554302598 7.24094865156134 -3.95868064663328 6.65639009000284 -11.1629444486338 19.5113945891505 23.4438345115961 12.7377417492888 -9.227709429866
0.0321500003114343 0.0600499968752265 0.00564999974519014 16 -0.269870587984721 -0.35092115632336 0.334502538775948 0.554858306833463 -9.42155749704202 -20.9103375632254 0.452103116095428 8.82258093243626 6.95730638342265 -2.77404662366455 -5.81554634553872 9.61697298591067 -6.71302601206053 12.3910196095752 6.26764946163414 29.7329184956617 32.8156553950772 -161.738770378131 164.784223252194
0.0349500003531575 0.0600499968752265 0.00564999974519014 16 -0.282695614894231 -0.335555146648549 0.314132888245707 0.539623515610973 -3.54269225212878 -24.8509962804073 0.681964041624505 6.61108062261864 6.80575157258405 -4.93976279064226 -7.00172976505024 10.5129233257306 -7.98790071748405 15.4526861163729 7.68369380667474 31.4620769030259 35.8843551116332 -157.25311429374 170.82253810326
-0.0350500006899238 0.0572499968335032 0.00564999974519014 16 0.152683050632477 -0.224706266573145 -0.2240683006243 0.352152841153302 -6.57438810520076 15.7047615544663 2.74239217412596 -7.8617034225471 4.83872604706108 0.748587730653601 7.96785771228875 -40.1366639147212 -3.60314372052582 -40.8852516453748 -5.22546553816279 -23.5664649770134 47.4793382821302 -72.1188181380018 106.103178061849
-0.0322500006482005 0.0572499968335032 0.00564999974519014 16 0.132814752658208 -0.245915566614373 -0.20137522503268 0.344479615774129 -12.0461027782104 13.5799995093024 2.79720260895344 -10.9912503017016 5.84656421365579 1.0359702779758 12.7240312506607 -36.7974506616962 -4.14953913968916 -37.833420939672 -9.92682864170723 -24.571249811004 46.1915142007165 -27.0415034622235 107.087459988299
-0.0294500006064773 0.0572499968335032 0.00564999974519014 16 0.0801856656869253 -0.283314745290554 -0.149873120739746 0.330392097667268 -22.4357697046102 8.08845462258073 2.56814833096727 -14.8413975476203 7.49117074277284 1.91131260156754 26.6007151474826 -27.6321165963105 -4.83451993495876 -29.543429197878 -24.0325668165153 -22.9298521702011 44.45398291613 3.34521255714839 8.72278104777831
-0.026650000564754 0.0572499968335032 0.00564999974519014 16 -0.00308796723683669 -0.324925781638194 -0.0404232912991817 0.327445173417331 -29.5570179495801 -1.1323261364262 1.85078010753056 -10.1384072359219 8.98386387511858 3.23287722954713 38.4610416900512 -11.9398569128021 -4.66198252231789 -15.1727341423492 -36.6102615825206 -9.00608109949571 40.6402831100583 33.4052326941768 -213.68736392174
-0.0238500005230308 0.0572499968335032 0.00564999974519014 16 -0.100174377759298 -0.335785855050005 0.086967434976929 0.361040691830702 -31.3346649507483 -13.1295197002567 0.920787182708229 4.71635826992197 10.113530989026 4.44401383067867 42.3014340522 7.75055400779387 -3.61712630248509 3.3065401771152 -41.3806468694918 17.8458779701786 45.185910456767 46.8494724282812 -251.615251861728
-0.0210500004813075 0.0572499968335032 0.00564999974519014 16 -0.195144620339076 -0.295680902455497 0.222780928687813 0.418497265356876 -23.3173026998388 -25.0536038221875 0.289214353778905 27.5268884493423 10.9827325855148 4.6550791378737 32.4810001432683 26.0372428631661 -2.33267044510889 21.3821637252924 -32.1917857894894 52.5804922715298 65.2550087380884 -179.364570389812 331.733147131745
-0.0182500004395843 0.0572499968335032 0.00564999974519014 16 -0.243717403411865 -0.181944091749222 0.290214215594654 0.420388054280199 -8.29590259855657 -32.8968936258118 0.316619699803856 51.6834878026269 11.1913693059524 3.59642283884337 9.53243950381777 36.8835782769329 -2.08299048390333 33.2871554380895 -9.21581980401391 84.5803814284387 91.3608612831544 -1441.61428283744 1465.68535972181
-0.015450000397861 0.0572499968335032 0.00564999974519014 16 -0.246068467696508 -0.00950342316490909 0.282813389201959 0.374997891938418 8.82634120657813 -33.5393915424787 0.783131366368028 63.9562921530436 9.35299459931171 1.99685620605545 -13.1974288505082 37.0465334531074 -2.98208067274538 35.0496772470519 13.9805602168763 97.4956836955224 104.543504237985 -2038.02914971565 2109.75432006237
-0.0126500003561378 0.0572499968335032 0.00564999974519014 16 -0.18912299990654 0.171469749516691 0.208491953172876 0.329603213926695 20.2059646629682 -26.7679007430924 1.19694520133176 55.0209645419748 4.79732158926316 0.853314643550822 -24.7005189398229 28.0389404149279 -3.95903855000104 27.185625771377 25.8974641411547 81.7888652850672 89.9953075562422 -1236.7871445435 1476.38038317876
-0.0098500003144145 0.0572499968335032 0.00564999974519014 16 -0.121723548571269 0.294343592128716 0.129105115899195 0.343690127084504 23.4402622195613 -15.1372200431225 1.35669498678432 28.9891253197046 -1.21692374060126 0.539152206006252 -20.9564083287057 14.4764912681455 -3.89084349933702 13.9373390621392 22.31310331549 44.1263453628272 51.373712682463 7.49241268702869 344.448647104802
-0.00705000027269125 0.0572499968335032 0.00564999974519014 16 -0.0454184913635254 0.330264641783433 0.0786442210517513 0.342523702062959 23.7232034417935 -2.26211928836089 1.48850975202754 1.72709292919294 -6.39944655905797 0.583709946001883 -12.4846573542447 1.50467483629487 -2.34158940963771 0.920964890292988 13.9731671062723 3.98921221755384 14.5606108877905 38.0966663516054 -170.768367504179
-0.004250000230968 0.0572499968335032 0.00564999974519014 16 0.0227324716250101 0.300300749495315 0.0523404870321974 0.305674388846036 22.9645328278661 8.67446156094683 1.81159714996562 -13.4849942710517 -8.8101438120406 0.490070494729288 -9.7868949358064 -7.97502770506706 -0.577569011150071 -8.46509819979635 11.598492085772 -22.1594558319985 26.4050068919931 -9.97761430147033 -71.8826720576832
-0.00145000018924474 0.0572499968335032 0.00564999974519014 16 0.0937697092692058 0.251921084336936 0.018154182874326 0.269418940436198 22.6957263857053 15.9738645652094 2.24096681244294 -16.9624839103647 -8.18841966918596 0.290090249403493 -12.8285978272869 -13.8447586499513 -0.052583424165277 -14.1348488993548 15.0695646397298 -32.9363484755741 38.8804421623911 -11.1630627861923 117.116135938789
0.0013499998524785 0.0572499968335032 0.00564999974519014 16 0.158964446783066 0.205014903176149 -0.0285362297213578 0.260988739741932 18.3614034130534 19.6090702889052 2.46362493560703 -18.3316248707263 -5.20218764924564 0.2100349946423 -16.431252811407 -17.4448926854165 -1.35069035501298 -17.6549276800588 18.894877747014 -37.9406951596315 45.9152395796733 -85.7068348537685 290.317110821164
0.00414999989420176 0.0572499968335032 0.00564999974519014 16 0.202813273270925 0.152219273384738 -0.0856935841714342 0.267670172736506 11.1515324083712 20.8853551932797 2.28646690432813 -23.6902020106113 -1.00033958407223 0.174278947986266 -15.5362358406519 -20.0885204274984 -3.62805196616074 -20.2627993754847 17.82270274498 -44.575557203891 52.1076776656226 -478.414819148613 485.818004490126
0.006949999935925 0.0572499968335032 0.00564999974519014 16 0.224597249031067 0.0764766518135245 -0.125205921016265 0.268270619342598 3.30707413493979 21.5738886324766 1.78993258264193 -30.8412428286239 2.84194458233081 -0.101696789118547 -12.3968996355438 -22.0223747227907 -5.36058548595149 -21.9206779336722 14.1868322181857 -52.4151314611005 58.558759682418 -678.623465217602 661.75172878774
0.00974999997764826 0.0572499968335032 0.00564999974519014 16 0.221996667385101 -0.017598807796312 -0.159445495283774 0.273888853975898 -3.86011453417859 22.3501012597159 1.19445082681273 -35.2266423547491 5.48423121717876 -0.573944035802308 -7.13668505686901 -22.5672556754808 -5.72848771261062 -21.9933116396785 8.33113588368174 -57.576743614465 62.1948147938252 -752.817552097246 752.417608143309
0.0125500000193715 0.0572499968335032 0.00564999974519014 16 0.201546560525894 -0.119229223297055 -0.162740072237017 0.285168292170687 -9.06588885255488 22.560003040026 0.798454673682271 -34.1765268000546 6.89109237563255 -0.836627706623795 0.0534160368876557 -20.9522828194517 -4.85637442851001 -20.1156551128279 0.745038636794616 -56.7365298400806 60.2015654404677 -704.721183426662 701.538386346256
0.0153500000610948 0.0572499968335032 0.00564999974519014 16 0.168043976227442 -0.207682558438585 -0.151675181174263 0.307207069596667 -14.2733869425542 21.0110970406307 0.7135058336431 -29.0314066737954 7.67671312575714 -0.393565663219415 10.2905833897815 -17.0503709708597 -3.31346619845798 -16.6568053076403 -9.57707755613843 -50.0425037144261 53.6043072484038 -444.665105143099 508.214029832939
0.018150000102818 0.0572499968335032 0.00564999974519014 16 0.116484123071035 -0.279336661462342 -0.094596385568669 0.317089888718028 -19.50957975475 16.7913334750812 0.814558260777362 -22.942531007589 8.15321287622425 0.826457155391568 23.9200529762563 -10.997917151595 -1.66071222987035 -11.8243743069866 -23.1054947154789 -39.7338644826702 47.4600853404832 -51.1786336478093 234.634619981027
0.0209500001445413 0.0572499968335032 0.00564999974519014 16 0.0506199276447297 -0.333165073027679 -0.00591553820189801 0.337040556242887 -24.9170638130593 9.67641288394162 0.812826666044791 -17.6459842822675 8.18742711949852 2.37060832919958 38.6479661095517 -3.27191588254172 -0.481807059796297 -5.6425242117413 -37.8351394435069 -27.3223971662091 47.0090336328856 34.9497500503738 -48.854023674413
0.0237500001862645 0.0572499968335032 0.00564999974519014 16 -0.0368051731586456 -0.375697860857472 0.136388437224862 0.401379258598097 -27.4894531267892 -0.627357414666728 0.470729462351597 -11.7155941549387 7.92865837146466 3.43957543085279 44.2947952553521 5.99338909100946 -0.294661376151239 2.55381366015668 -43.8240657930005 -11.088236740272 45.2771432496393 97.4278103685734 -261.006115840317
0.0265500002279878 0.0572499968335032 0.00564999974519014 16 -0.122405156691869 -0.399476085927648 0.259954007820901 0.49207748555993 -22.6663952420195 -13.9896084140347 -0.0433109250739076 -3.01732604166665 7.71139412956906 2.9456756002175 31.482709585529 16.3558595243177 -1.38662665641014 13.4101839241002 -31.5260205106029 10.972282372368 35.9737957765389 85.885444613699 -243.079224844405
0.029350000269711 0.0572499968335032 0.00564999974519014 16 -0.183485657771428 -0.398232417052301 0.330034917085626 0.548797859958334 -12.6030935254847 -28.6873198259678 -0.386723103004415 6.47945185973894 7.7000486071075 0.559921344870471 6.28915962871107 26.3179450783391 -3.40732002484023 25.7580237334686 -6.67588273171549 35.1667716857067 44.0992633464118 -8.327257894879 93.2361023086311
0.0321500003114343 0.0572499968335032 0.00564999974519014 16 -0.208263843854268 -0.371111800097084 0.308663969479773 0.52571022710545 -3.34345156459643 -41.0178935636302 -0.375121764215985 8.88715077427184 7.69186149514202 -2.6626439506011 -9.15608082919914 34.0623672520984 -5.47302188167384 36.7250112026995 8.78095906498315 49.9050443379021 62.5807090109028 -310.370128966838 402.27720640506
0.0349500003531575 0.0572499968335032 0.00564999974519014 16 -0.211149140199026 -0.354437093472419 0.288442237891916 0.503396997643074 0.102616762248077 -46.9975495951408 -0.23389083413492 6.71834694883635 7.6420544815134 -4.75181126486655 -8.91522324556743 37.7420827826579 -6.46018204453422 42.4938940475245 8.68133241143251 53.7158965439772 69.039800878068 -242.570051593791 443.756125828102
-0.0350500006899238 0.05444999679178 0.00564999974519014 16 0.0825946390628816 -0.236990212026673 -0.0670132334421699 0.259763370117401 -4.07483069037769 25.7509060111846 1.49808826560549 -9.00693891546188 4.20400564838792 0.284412962036782 4.34554939114594 -57.0719452479495 -3.0029114169204 -57.3563582099863 -2.84746112554044 -34.7578449266464 67.1265047944441 -218.481677016957 224.140309712464
-0.0322500006482005 0.05444999679178 0.00564999974519014 16 0.0710273543993631 -0.263252633882015 -0.0529906630710078 0.27776760914746 -7.30209807435856 22.2984775475557 1.49268539438191 -12.4532688884145 5.03993123281109 0.667307512093073 5.3776464274605 -51.8573375707267 -3.53554913245335 -52.5246450828198 -3.88496103307859 -34.7517464359702 63.100040757948 -273.529881797597 275.462523205745
-0.0294500006064773 0.05444999679178 0.00564999974519014 16 0.0403571859995524 -0.30794065902223 -0.0346150842945402 0.312496969587812 -12.9092436370674 13.5194916628826 1.23211118729744 -16.1427932863462 6.15873902913283 1.76708161514176 10.9230195559037 -37.9985912213334 -4.37193572338674 -39.7656728364752 -9.69090836860628 -29.6622849492288 50.547735751026 -223.475495940908 221.938706227127
-0.026650000564754 0.05444999679178 0.00564999974519014 16 -0.00509995301564525 -0.354902552613445 0.0116890850507965 0.355131617969487 -15.3565434549862 -0.986728140247271 0.534104689802316 -10.6524241823134 6.48145858190439 3.38519027110337 15.2932773009985 -14.8453909242103 -4.43914903016309 -18.2305811953136 -14.7591726111962 -9.66569604206609 25.369527919605 -17.609208675818 -28.5597608618385
-0.0238500005230308 0.05444999679178 0.00564999974519014 16 -0.0517485431830089 -0.370032390629252 0.0560478468002596 0.377813767572475 -14.6540012510518 -19.8706727707073 -0.356143822997084 4.67710107004256 5.9050656142678 4.8749287097743 16.6664391539487 14.2669574424978 -3.56271431969338 9.39202873272349 -17.0225829769458 24.5477738407498 31.3140820631854 -39.1857508099044 -26.0404868269616
-0.0210500004813075 0.05444999679178 0.00564999974519014 16 -0.0951420871416728 -0.332568638547285 0.111972076233166 0.36358171288836 -8.97306621540557 -38.9714888329061 -0.836880315219727 27.2327657544119 5.36924391258889 5.27235462695929 12.2800257894996 41.8162378391456 -2.39104281569355 36.5438832121863 -13.1169061047193 66.2042545873181 76.7496706927682 -810.107884104245 811.54661555945
-0.0182500004395843 0.05444999679178 0.00564999974519014 16 -0.108904713392258 -0.221695421416856 0.13106045150198 0.279617485905567 -1.6172338154378 -52.1511042968338 -0.472353515937607 51.5501838242509 5.58803386545769 4.21685143380736 1.81397915879795 58.8893371241673 -2.16379330439965 54.6724856903599 -2.28633267473555 103.701288121085 117.252996407914 -2408.39549053319 2423.29911899458
-0.015450000397861 0.05444999679178 0.00564999974519014 16 -0.108260799646378 -0.0442570209557501 0.124215195428017 0.170612131512303 5.02619849390204 -54.3871324506096 0.412266535661352 65.8870919052807 5.62891279823725 2.44175972317858 -6.93441968024733 60.1818331227517 -2.93542674563373 57.7400733995731 7.34668621590868 120.27422435589 133.618033659211 -3421.0880089247 3436.33398159435
-0.0126500003561378 0.05444999679178 0.00564999974519014 16 -0.0811631441116334 0.153090690328117 0.09105120010885 0.195740993326608 7.75470394498148 -44.9072198193331 1.07849793941602 59.4554609222418 3.81928967578171 1.05121285719516 -8.94811642264402 47.1740144734914 -3.66488317242602 46.1228016162962 10.02661436206 104.362680741575 114.540014650207 -2626.36304627102 2617.24017393562
-0.0098500003144145 0.05444999679178 0.00564999974519014 16 -0.0614443111419678 0.297400863842728 0.0695285546577846 0.311539559444563 6.82971239674852 -27.4760899785034 1.20239390840824 34.6058852819765 -0.217721336892729 0.571771334659533 -2.70667548425249 26.7343282586416 -3.48639850663136 26.1625569239821 3.90906939266072 62.0819752604799 67.482826412059 -929.07972033141 914.263975487433
-0.00705000027269125 0.05444999679178 0.00564999974519014 16 -0.0363441975911458 0.353932336986521 0.0710228135130213 0.362812954430502 7.57786361295897 -7.59530108161768 1.16563099695227 6.13889505581968 -5.06376060733466 0.683226407623608 2.4750263408534 6.49672815094089 -2.27619857582814 5.81350174331729 -1.30939534390113 13.7341961374374 14.9712879281571 4.81062367262666 -4.79203233158558
-0.004250000230968 0.05444999679178 0.00564999974519014 16 -0.0101209465662639 0.334471966412772 0.0778636751193941 0.343564668990457 10.5958068080989 9.98218391767626 1.48360182404827 -12.3062216719819 -8.24363808004854 0.831383564831751 0.355607567823191 -9.1257555064249 -1.32024593136265 -9.95713907125666 1.12799425622508 -22.2884055896582 24.4374714988177 -41.1560637361572 39.4489534846946
-0.00145000018924474 0.05444999679178 0.00564999974519014 16 0.0313621393839518 0.284775947199863 0.0675158158200793 0.294345560992804 15.0596314482375 22.6876018706487 2.09188271035074 -18.877760660683 -8.12885807165468 0.916884306929467 -6.44351053605951 -19.7836143563976 -1.51179020128449 -20.7004986633271 8.53539324641025 -41.5653625313316 47.2127413432254 -312.839423347939 327.013989968849
0.0013499998524785 0.05444999679178 0.00564999974519014 16 0.0801440223058065 0.22885551484098 0.0368123509348758 0.24526120803306 14.8966720561919 30.1532224412823 2.45102106356094 -22.8313718443417 -4.70006636766135 0.969747789399689 -11.9977659163061 -27.0020545072607 -2.88785172007754 -27.9718022966604 14.448786979867 -52.9845942856239 61.6324297795017 -600.370786159471 644.569760908306
0.00414999989420176 0.05444999679178 0.00564999974519014 16 0.116981464624405 0.156542030541847 -0.00401194328141476 0.195463976427189 9.74398852840507 33.7492127737354 2.19231345750138 -28.5619340326847 0.469564562853985 0.777622833928464 -12.2366398992695 -32.0915096016621 -4.66442265691729 -32.8691324355906 14.4289533567709 -62.3111468064202 71.9114287048416 -982.776785715027 972.659533133024
0.006949999935925 0.05444999679178 0.00564999974519014 16 0.134302149613698 0.066825976788532 -0.0346768852959697 0.153965141958923 2.13074908624632 35.6445482631982 1.43995484231551 -34.258381464352 4.91615105425242 0.163569032661869 -10.4091613334481 -35.4449895498479 -5.8188817985354 -35.6085585825098 11.8491161757636 -69.9029297275502 79.3397163025277 -1215.53179576182 1211.38096184812
0.00974999997764826 0.05444999679178 0.00564999974519014 16 0.127439719835917 -0.0399975800390045 -0.0640223360391489 0.148120046289296 -4.55857937837627 36.74312552885 0.629900368744483 -36.8306272378839 7.29498793826738 -0.723578905732495 -7.78682812222066 -36.2377038339019 -5.97736657367787 -35.5141249281694 8.41672849096514 -73.5737527667339 82.1291147163095 -1280.81737549612 1282.34514908829
0.0125500000193715 0.05444999679178 0.00564999974519014 16 0.10754954457283 -0.145490273105291 -0.0778970132502339 0.196982914942851 -8.00140163513205 36.1672013753147 0.143799804491811 -34.6183296591455 7.93391452203934 -1.3309799462889 -3.83032488417829 -33.3187927035134 -5.23591400793333 -31.9878127572245 3.97412468867011 -70.7855310344602 77.7792082491386 -1146.26366739073 1145.12317519705
0.0153500000610948 0.05444999679178 0.00564999974519014 16 0.0808352466424307 -0.237933928851659 -0.0822836468719955 0.264419156153793 -9.78769233264038 32.1659255473733 0.0357530207500577 -29.5245202063298 8.08321016354006 -1.14306943870798 3.1770886775723 -26.2234689188302 -3.95722611213183 -25.0803994801222 -3.14133565682224 -61.6904457537031 66.6678747605016 -854.369787708543 847.223729569711
0.018150000102818 0.05444999679178 0.00564999974519014 16 0.0484594281514485 -0.311460595390915 -0.0527946635727615 0.319598646993052 -11.2105264712744 23.6009412195334 0.138403579659069 -23.0705837043767 8.227876642395 -0.106405591040158 13.9124805681627 -15.1548556177921 -2.70757676366255 -15.0484500267519 -13.7740769885036 -46.6715249239101 50.9353736004364 -423.558296341612 456.786315894475
0.0209500001445413 0.05444999679178 0.00564999974519014 16 0.0120762666066487 -0.365109526150239 0.00482561455961938 0.365341058268414 -12.9865887812785 10.4863334954166 0.123974794359806 -17.1805163356409 7.85624714928178 1.37547734891748 26.553803915534 -0.779122284734094 -1.89732024563337 -2.15459963365157 -26.4298291211742 -27.6668498310575 38.3227445067558 -41.4481830656689 85.6483365473614
0.0237500001862645 0.05444999679178 0.00564999974519014 16 -0.0301202090581258 -0.405847587448661 0.104935760995334 0.420274916176631 -11.9623414749599 -6.66748288958521 -0.273129792273246 -10.6135053845744 6.54745918032476 2.5375977578659 29.94457096893 16.3999592221546 -1.72746224596036 13.8623614642887 -30.2177007612033 -3.94602249498922 33.4790322170636 124.383596932503 -173.172048631051