TITLE="DynamicStudio Exported Data"
VARIABLES= "X (m)[m]" "Y (m)[m]" "Z (m)[m]" "Status[-]" "U[m/s]" "V[m/s]" "W[m/s]" "Length[m/s]" "dU/dX[1/s]" "dU/dY[1/s]" "dU/dZ[1/s]" "dV/dX[1/s]" "dV/dY[1/s]" "dV/dZ[1/s]" "dW/dX[1/s]" "dW/dY[1/s]" "dW/dZ[1/s]" "Vorticity X[1/s]" "Vorticity Y[1/s]" "Vorticity Z[1/s]" "Vorticity Magnitude[1/s]" "Lambda-2[1/s²]" "Q-Criterion[1/s²]"
ZONE T="DynamicStudio Data" I=26 J=26 F=POINT
-0.0350500006899238 0.0600499968752265 0.00564999974519014 16 -0.285091529885928 -0.400593499362391 0.235740544416476 0.545276018568469 -9.27054177578382 -7.80411405420036 -1.08810954894555 18.7733759242932 12.714272937216 -3.45194904885919 19.9830250245495 6.99852850736523 8.17615005324449 10.4504775562244 -21.0711345734951 26.5774899784936 35.4903954179778 -39.7627683772921 102.700115371732
-0.0322500006482005 0.0600499968752265 0.00564999974519014 16 -0.314577430287997 -0.349264884476239 0.296411521515499 0.55570199681298 -12.4707508688746 -10.0976126508226 -1.36426098622301 32.243015682085 11.1556317315092 -3.12575911437309 32.8563680618055 9.66347870033112 9.10943177840694 12.7892378147042 -34.2206290480285 42.3406283329076 55.9226686053988 -257.122258375823 249.508758601039
-0.0294500006064773 0.0600499968752265 0.00564999974519014 16 -0.362346006234487 -0.224081035684212 0.430478586706643 0.605655638461611 -9.93532758558735 -13.4183200057645 -1.54151322890953 54.2444582193913 7.73869387328297 -2.38719190036995 40.4395906874618 13.1511496101599 10.4284798410809 15.5383415105298 -41.9811039163713 67.6627782251558 81.1301713302865 -759.197254509182 721.807971670803
-0.026650000564754 0.0600499968752265 0.00564999974519014 16 -0.375855659643809 -0.0517690197033032 0.529854081906378 0.651684629556486 6.79398640406325 -15.0993276207084 -1.15384231893502 62.8607520411425 3.16673952860542 -1.52074531605799 20.1617238979001 14.6846058796899 10.6234531365018 16.2053511957479 -21.3155662168351 77.9600796618509 82.4302177080951 -827.024397785579 1122.0821758729
-0.0238500005230308 0.0600499968752265 0.00564999974519014 16 -0.32342720190684 0.120248890573081 0.541966805471263 0.642489664391631 28.9439145715779 -13.6476360947837 -0.21513021333981 55.6734229363982 -1.38913035037308 -0.813917171570387 -16.5173598444893 13.7223944986675 9.16606377590275 14.5363116702379 16.3022296311495 69.3210590311819 72.680645794638 35.9854474272104 979.78816507014
-0.0210500004813075 0.0600499968752265 0.00564999974519014 16 -0.205766075054804 0.253466057226882 0.429365617566121 0.539388128676871 42.0125505327885 -9.85628416828081 0.930844895744339 36.4786871804757 -4.81082613559636 -0.359470303243569 -50.9523945120938 11.779226131145 5.80023740791273 12.1386964343886 51.8832394078381 46.3349713487565 70.6126621256228 19.7474760957777 424.871122644714
-0.0182500004395843 0.0600499968752265 0.00564999974519014 16 -0.0778672691186268 0.32038233345258 0.245326361832752 0.410966148239253 39.1905098201889 -5.53437873516153 1.82688082137434 14.6282765272287 -6.74805893828202 -0.107347873089843 -62.2455397480703 9.83863281667242 1.33037981213986 9.94598068976226 64.0724205694447 20.1626552623903 67.9023584033641 22.3958265739044 -25.569326745144
-0.015450000397861 0.0600499968752265 0.00564999974519014 16 0.0227953871091207 0.333709485156384 0.0687950240510205 0.341488514434928 25.9837622119848 -1.9406156709604 2.32558309641345 -5.1893115399243 -7.60636213786268 -0.0408991166235868 -54.42516143212 7.29996939940035 -2.64006811346344 7.34086851602394 56.7507445285334 -3.2486958689639 57.3156992451583 65.1408105355592 -129.361154582465
-0.0126500003561378 0.0600499968752265 0.00564999974519014 16 0.0739097833633422 0.290351176550636 -0.0718465609836858 0.308104511694226 13.9320025184523 0.33428007386514 2.43630631493024 -20.2730179451149 -7.82805356033387 -0.167153153298287 -37.9703950282158 3.7682791896304 -4.96152270613126 3.93543234292869 40.4067013431461 -20.6072980189801 45.5285610666868 72.8554542479033 -39.4310843970665
-0.0098500003144145 0.0600499968752265 0.00564999974519014 16 0.103524334430695 0.219846671195701 -0.153901114142888 0.28763761852298 9.30765332217362 1.36458754634833 2.12524359805944 -29.7518228823782 -7.50539756129186 -0.37675921379693 -22.2959948095303 0.0284394274402601 -5.158979220803 0.40519864123719 24.4212384075898 -31.1164104287266 39.5574527651638 25.9112831537173 8.83866346754533
-0.00705000027269125 0.0600499968752265 0.00564999974519014 16 0.125821965535482 0.124268876399922 -0.201777877121737 0.268306228680338 10.7701016138195 1.82003352503405 1.51503450448381 -33.2453836317006 -6.61599343867374 -0.489879097218405 -11.3643587399594 -2.72456693051133 -3.89524279774626 -2.23468783329292 12.8793932444432 -35.0654171567347 37.4226680026037 -3.56984956542501 -11.0457815747203
-0.004250000230968 0.0600499968752265 0.00564999974519014 16 0.163042135238648 0.0357807760353414 -0.218091769345726 0.274639803475785 11.8581280395163 2.77949395986112 0.936061969595316 -30.8289638279746 -5.21151516067575 -0.188963488222948 -1.29025961704959 -4.59132992095319 -2.01642132324868 -4.40236643273025 2.22632158664491 -33.6084577878357 33.9685998076448 -12.7417473129774 10.8279019981644
-0.00145000018924474 0.0600499968752265 0.00564999974519014 16 0.19403561035792 -0.0441912305999237 -0.208394199191825 0.288150698777061 9.40589581708156 5.12975906730293 0.779983803597001 -25.9350427129805 -3.65551497383546 0.527605830067315 6.45959270913249 -6.80992012555821 -0.661728676575944 -7.33752595562553 -5.67960890553549 -31.0648017802834 32.420967815869 -74.3273499688949 93.406511480494
0.0013499998524785 0.0600499968752265 0.00564999974519014 16 0.221983296871185 -0.105060760828007 -0.185903047551401 0.308016705138632 2.51617826043947 8.56137706425294 1.12021773093898 -20.1133104581545 -2.16876432802144 1.37639215816681 14.1979599246116 -9.73131154594562 -0.935398579362401 -11.1077037041124 -13.0777421936726 -28.6746875224075 33.4162554301081 -174.125459486108 163.904961139431
0.00414999989420176 0.0600499968752265 0.00564999974519014 16 0.21615651845932 -0.152424251808358 -0.137019320305359 0.297877637879608 -7.34314299703164 11.3251434518506 1.6243030622055 -17.7451252008904 -0.581967921320108 1.81691584928058 19.9454227496186 -11.642369595194 -3.02859007272996 -13.4592854444746 -18.3211196874131 -29.070268652741 36.9038793464711 -109.758765563021 217.997268981177
0.006949999935925 0.0600499968752265 0.00564999974519014 16 0.185312895377477 -0.201336057462419 -0.080852430658415 0.285331724088066 -16.22246115406 11.5637329295242 2.17786735551564 -18.2713265489335 1.36637755372084 1.4411992853235 18.4716206427603 -10.5694433770176 -6.41314030893109 -12.0106426623411 -16.2937532872446 -29.8350594784576 36.0537474811031 6.50396218750275 259.396816903049
0.00974999997764826 0.0600499968752265 0.00564999974519014 16 0.123964055379232 -0.252201198196659 -0.0350267170780959 0.283194989904774 -24.280861990707 8.60981942585097 2.71716163480538 -20.8209816479458 3.72165245441483 0.391619883318591 14.3842502875471 -6.41952059199104 -9.52876454881054 -6.81114047530963 -11.6670886527417 -29.4308010737967 32.3834007486973 56.9870296150763 248.233508494172
0.0125500000193715 0.0600499968752265 0.00564999974519014 16 0.0417257702350617 -0.3158296771512 0.0054909877331617 0.318621367484082 -29.0645164713978 3.35185373795253 2.8999341308371 -17.7492561719994 5.55971040268582 -0.697523478416767 10.684247373181 -1.07328524740648 -10.5703176550956 -0.375761768989713 -7.7843132423439 -21.1011099099519 22.4943008114019 73.2538890844774 114.623627359735
0.0153500000610948 0.0600499968752265 0.00564999974519014 16 -0.0501050563653309 -0.351132380618559 0.0351579336996656 0.356427476065271 -33.1817665844877 -2.70600093132964 2.32692896690718 -4.18018422753587 5.73123362023289 -0.945628848674943 16.9889219931017 3.46049987047586 -8.6877428368308 4.4061287191508 -14.6619930261945 -1.47418329620624 15.3805470052504 33.598195300201 0.739466292897674
0.018150000102818 0.0600499968752265 0.00564999974519014 16 -0.157538056572278 -0.340249959612265 0.113706990178325 0.391813161979192 -32.5611945928352 -8.50232614041165 0.977668258029061 20.6908064678435 3.60703293377044 -0.0723866517226345 24.9761816132483 7.39937373002018 -4.80026446800991 7.47176038174282 -23.9985133552192 29.1931326082552 38.5226535683355 13.8521862914797 173.575512770622
0.0209500001445413 0.0600499968752265 0.00564999974519014 16 -0.245752763350805 -0.239219578715274 0.190514015643081 0.392321319445836 -24.7340777425901 -13.3475266122879 -0.53826173527125 48.0383613654607 -0.208772936007208 1.3496840323131 21.6943556791702 12.4242674852482 -1.19062611685061 11.0745834529351 -22.2326174144415 61.3858879777486 66.2205626566979 -12.7020107481656 670.963128308019
0.0237500001862645 0.0600499968752265 0.00564999974519014 16 -0.306604669888814 -0.0765553069355277 0.251756031901265 0.404039896812546 -9.15564331503642 -16.6148824950207 -1.81683698947924 63.5082395677639 -4.24670470100452 2.26839846366439 5.72602700104355 19.2344112236966 0.827323868744783 16.9660127600322 -7.54286399052279 80.1231220627845 82.2463073653825 -890.615328696021 1049.74711776874
0.0265500002279878 0.0600499968752265 0.00564999974519014 16 -0.303518994450569 0.109833449127764 0.239438032552728 0.401892694599326 6.83296616971251 -17.8339317858366 -2.97852312580771 61.2949961564745 -7.40390551135789 2.23596775689126 -13.5569744001596 26.0948111363732 2.11381083420099 23.858843379482 10.5784512743519 79.1289279423112 83.3218775356746 -979.076662914225 942.606368528832
0.029350000269711 0.0600499968752265 0.00564999974519014 16 -0.270794477065404 0.261433684971416 0.190129696281704 0.42169482075908 14.6942545594035 -17.1540487307629 -4.21981610101168 43.0845824318529 -9.22142002623004 1.58692041153805 -19.6751230914554 30.1637379935063 4.05434288512402 28.5768175819682 15.4553069904437 60.2386311626158 68.4411696395351 -605.596149439412 494.869028346113
0.0321500003114343 0.0600499968752265 0.00564999974519014 16 -0.220929333368937 0.347660539233281 0.137511421104815 0.434266061092833 12.2508589540672 -15.5903250730723 -5.36492695458578 21.8330264251253 -10.0256505520838 0.939208270879884 -14.3912533300271 30.6861030000409 6.40966077561541 29.746894729161 9.0263263754413 37.4233514981976 48.6503807921523 -119.697524015572 125.795314832855
0.0349500003531575 0.0600499968752265 0.00564999974519014 16 -0.200971328814824 0.38247152118478 0.111197800751155 0.446137748251467 7.04770949687771 -14.6433982609755 -5.93553747435279 11.8748045685167 -10.0428539529422 0.744808967949672 -9.15485904983249 29.9479686337572 7.70781077947797 29.2031596658075 3.2193215754797 26.5182028294922 39.5778176151627 13.9862387229946 3.37784409059077
-0.0350500006899238 0.0572499968335032 0.00564999974519014 16 -0.26674863576889 -0.437643278887942 0.219358522619198 0.5574985521829 -6.79025625714562 -17.8208259664092 -1.08242363253457 19.4162620678755 15.3075845843901 -3.13690728873446 17.2508490414486 18.9699110322721 6.71755159758936 22.1068183210066 -18.3332726739832 37.2370880342847 47.0257485691582 -167.497782241908 377.466576603265
-0.0322500006482005 0.0572499968335032 0.00564999974519014 16 -0.286679637829463 -0.381757085254891 0.267762972568162 0.547376192729352 -9.68910277175679 -20.6647363708657 -1.37507190564098 33.7113742447474 14.1444777091026 -2.78259025635685 29.815956002464 22.0327316883253 7.64624244105841 24.8153219446821 -31.191027908105 54.3761106156131 67.4198919523296 -575.631409972674 695.963388183413
-0.0294500006064773 0.0572499968335032 0.00564999974519014 16 -0.324154363075892 -0.245896916253841 0.391062857553673 0.564332794618858 -7.59785351744606 -24.6769560844774 -1.70821877578 57.1486416436038 10.9109150083032 -2.01027890035251 38.1834264868435 26.1667509783421 9.33901589139965 28.1770298786946 -39.8916452626235 81.8255977280812 95.2927952056272 -1354.49326876711 1476.12383349564
-0.026650000564754 0.0572499968335032 0.00564999974519014 16 -0.330615847905477 -0.0602585686750899 0.485842896130246 0.590746353103642 6.3909862657312 -26.0510941426387 -1.49012936630934 66.7524166905302 5.63905171626226 -1.13580739234086 20.5713746376272 27.5021123493899 10.1568898023436 28.6379197417308 -22.0615040039365 92.8035108331689 99.5958434324024 -1643.88832609 1959.09147558945
-0.0238500005230308 0.0572499968335032 0.00564999974519014 16 -0.28393192132314 0.126024748687826 0.503407176826828 0.591538974970236 25.5034843828187 -22.6915609908557 -0.60376124000335 59.488551662596 -0.549118366330389 -0.479484836242182 -13.8868685001598 24.7827073923408 9.03363356598705 25.262192228583 13.2831072601565 82.1801126534517 86.9953459123689 -803.057539683871 1564.81084454415
-0.0210500004813075 0.0572499968335032 0.00564999974519014 16 -0.17794474641482 0.267980404640984 0.39640162393606 0.510501789915888 37.3205025396669 -15.8228667844759 0.615866428732043 39.188138331122 -5.93313298143344 -0.1616679278296 -47.9735180311863 19.8210623562781 5.51805519047379 19.9827302841077 48.5893844599184 55.011005115598 76.0687089125975 56.1284949731521 604.58813465142
-0.0182500004395843 0.0572499968335032 0.00564999974519014 16 -0.0629985046386718 0.340294013786285 0.215917119014387 0.407908114272028 34.7959097729925 -8.17685388853109 1.60454566904801 15.9406876489883 -9.30925098627746 -0.105585688739645 -59.0904422176528 14.3339527831107 0.777201549912593 14.4395384718503 60.6949878867009 24.1175415375194 66.8882473657427 32.9757092447231 -77.4441394536012
-0.015450000397861 0.0572499968335032 0.00564999974519014 16 0.0271260837713878 0.354378172267849 0.0465260263284047 0.358447185128556 22.7751813983074 -1.77159404905769 2.11150866580742 -4.84924986226449 -10.6756227191699 -0.211193871743709 -50.5627225105435 8.16263747020743 -3.13240719350386 8.37383134195114 52.674231176351 -3.07765581320681 53.4244105879295 121.840866586291 -181.143365053319
-0.0126500003561378 0.0572499968335032 0.00564999974519014 16 0.0717668879032134 0.312790544337477 -0.0832570771787626 0.331542081381229 12.1081983728975 2.50249232856598 2.24313974763244 -20.5675535696871 -10.6472516314339 -0.380707059298128 -33.6930823730806 1.20011596341913 -5.10322244899113 1.58082302271725 35.9362221207131 -23.0700458982531 42.7333368634593 54.0925505692724 -8.86924115130285
-0.0098500003144145 0.0572499968335032 0.00564999974519014 16 0.09917364915212 0.240488396487199 -0.152807318946968 0.301695472711959 8.41040133960303 4.88011263253029 2.08565179876012 -30.4451569424432 -9.76693394647736 -0.502238212649426 -18.7817324529938 -5.34484579418916 -4.97154063613003 -4.84260758153974 20.8673842517539 -35.3252695749735 41.3131122555985 -52.0048299153895 109.663785902086
-0.00705000027269125 0.0572499968335032 0.00564999974519014 16 0.121379384994507 0.143805622003274 -0.193355700597943 0.269813711614356 10.0180877032877 6.3775631994041 1.74466869189764 -34.2916846495077 -8.32376690947807 -0.470620659135546 -9.67325032446665 -9.63254778023453 -3.61973840453151 -9.16192712109898 11.4179190163643 -40.6692478489118 43.2238071418147 -138.457499716406 141.519502102943
-0.004250000230968 0.0572499968335032 0.00564999974519014 16 0.157173132101695 0.0501496815231318 -0.205804852754809 0.263768878810516 10.3520464915655 8.31583851294437 1.3973501967927 -32.1159280577057 -6.45866108793929 -0.0977436763594173 -0.483243656969083 -11.5084178256605 -1.8528402193312 -11.4106741493011 1.88059385376179 -40.43176657065 42.0531552420014 -188.595108236244 192.547076052216
-0.00145000018924474 0.0572499968335032 0.00564999974519014 16 0.181586782137553 -0.0338824572041631 -0.190299002982016 0.265208391438153 6.76551607245785 11.6788781030383 1.27779568104963 -27.1673844020437 -4.45802189809168 0.582234287290393 7.78979790056018 -12.906108908967 -0.620511405545126 -13.4883431962574 -6.51200221951055 -38.846262505082 41.6338046027585 -282.525829601212 283.252534562241
0.0013499998524785 0.0572499968335032 0.00564999974519014 16 0.198143652677536 -0.0991686991569198 -0.157988994709303 0.272132064332978 -0.340398005681129 16.0319614481326 1.45753846061492 -21.4145303604623 -2.42004385532533 1.36390419091817 16.3091620850948 -15.3737191207488 -0.908480774569107 -16.7376233116669 -14.8516236244799 -37.4464918085949 43.6229126397772 -346.653731557624 343.84556057021
0.00414999989420176 0.0572499968335032 0.00564999974519014 16 0.182593589623769 -0.150520898166966 -0.101260275927683 0.257391925354379 -8.79633602188476 19.4204752765738 1.74786178008071 -19.2110969586931 -0.181784330781995 1.80320567930772 20.9574789911225 -17.8599581729864 -2.95961690133308 -19.6631638522941 -19.2096172110418 -38.6315722352669 47.4135822254084 -264.892479979007 396.833867791488
0.006949999935925 0.0572499968335032 0.00564999974519014 16 0.150788578987122 -0.204601485643846 -0.0497136209230909 0.258979550516849 -15.031953198093 19.6036305195687 2.1427654652382 -19.9744062266562 2.33781861306307 1.54812354019956 16.8607331251613 -17.6187689696168 -6.34726694069883 -19.1668925098163 -14.7179676599231 -39.5780367462249 46.3725062208948 -130.134691964118 428.149394662296
0.00974999997764826 0.0572499968335032 0.00564999974519014 16 0.0979721570014953 -0.262268049627019 -0.0161227145554343 0.28043362018011 -20.3124171791847 15.4293155866372 2.58830542411519 -22.5309044295137 4.96572943878906 0.676760213687368 10.2907425980011 -13.2976813574807 -9.49016455130758 -13.974441571168 -7.70243717388592 -37.9602200161509 41.1775528573303 77.1920897420604 374.776815702032
0.0125500000193715 0.0572499968335032 0.00564999974519014 16 0.0325534451007843 -0.332819279001172 0.00556042231464138 0.33445375997155 -23.4813340648479 7.63034359786443 2.74829021329392 -18.3407541328112 6.65446419841188 -0.219590878731744 5.9214587464746 -6.22346348942316 -10.5558394946593 -6.00387261069142 -3.17316853318068 -25.9710977306756 26.8442433717489 107.901560138595 143.671793581682
0.0153500000610948 0.0572499968335032 0.00564999974519014 16 -0.0426355548699697 -0.367379062912272 0.0250324758798039 0.37069096462423 -27.0930348953176 -2.02228560809483 2.23510063337634 -3.25704382907821 6.26564735491705 -0.291092907091847 12.5693462932711 1.44763913115305 -8.64716101236422 1.7387320382449 -10.3342456598948 -1.23475822098338 10.5519879797202 41.4499522793854 -23.9166581383585
0.018150000102818 0.0572499968335032 0.00564999974519014 16 -0.132328194777171 -0.352198720340287 0.0935980159935449 0.387705143556606 -26.9377393152322 -11.8023641718406 1.02730426470908 23.465961372665 3.2754189471254 0.74442327070499 20.0700649343936 9.4603735566569 -4.79610037217811 8.71595028595191 -19.0427606696845 35.2683255445056 41.0176707045061 30.8185921554629 274.547718015547
0.0209500001445413 0.0572499968335032 0.00564999974519014 16 -0.20752433180809 -0.235825889935562 0.158404222895533 0.351812587164575 -20.3230394333479 -20.2217909347271 -0.323237846445474 51.2010470444041 -1.39048634671364 2.32823323583981 15.6385279856062 18.7473533439996 -1.38707404251375 16.4191201081598 -15.9617658320516 71.4228379791312 75.0039149551319 -623.31843689521 1055.16079877595
0.0237500001862645 0.0572499968335032 0.00564999974519014 16 -0.257549782991409 -0.0643895737733692 0.197909009976623 0.331128198979738 -6.82432973078963 -25.8750242006385 -1.47420998151217 66.2541874693987 -5.95314267229282 3.36276959188395 -0.548651803712636 28.8078119295037 0.3421850152229 25.4450423376198 -0.925558177799533 92.1292116700372 95.582940321201 -1528.27259506332 1652.89979117508
0.0265500002279878 0.0572499968335032 0.00564999974519014 16 -0.252304420073827 0.135142127845126 0.163410587714728 0.329581454703646 6.97240597334609 -27.9394278249135 -2.53002465081321 63.119491440679 -9.4711855880144 3.29703474801521 -18.0286550917791 37.2673714549872 1.3753516757638 33.970336706972 15.4986304409658 91.0589192655925 98.4170620337164 -1530.7448928856 1525.56406329566
0.029350000269711 0.0572499968335032 0.00564999974519014 16 -0.220889479716619 0.286889536435095 0.101156018539526 0.375939235052942 13.3550819029954 -26.9663226571636 -3.66621318442447 44.2178211417151 -11.8230814104571 2.40111627838846 -21.1437465937651 41.8513666965387 3.29252846489478 39.4502504181502 17.4775334093406 71.1841437988786 83.2404274406902 -929.76236812609 861.53048637366
0.0321500003114343 0.0572499968335032 0.00564999974519014 16 -0.178009599049886 0.378538469649696 0.0507041864025329 0.421366473366567 10.8304546980823 -24.7279869640008 -4.7228787366262 22.5714017830086 -13.4266186362513 1.39263117160944 -13.8547431514022 42.6093583513786 5.91335456300569 41.2167271797692 9.13186441477596 47.2993887470094 63.3990672087697 -302.632192406155 272.603513817449
0.0349500003531575 0.0572499968335032 0.00564999974519014 16 -0.160157247384389 0.409124810957971 0.0296438621661703 0.440354645025196 6.35380989732011 -23.3919251121956 -5.24428203456227 11.4048215017175 -14.0025985049154 0.909848480441463 -8.45486272891448 42.0855608545423 7.49635969970851 41.1757123741008 3.21058069435221 34.7967466139131 54.0051913506702 -56.4071360717252 37.8416425418685
-0.0350500006899238 0.05444999679178 0.00564999974519014 16 -0.192395800352096 -0.486588491622048 0.132515475611823 0.539763703345058 -2.07993066948662 -34.0630589781994 -0.800614496441418 20.4726039245829 14.1358653711434 -2.29022293527937 12.5062675427358 34.5642220683598 3.79623998183047 36.8544450036392 -13.3068820391772 54.5356629027824 67.1525260461344 -531.842532260409 802.897589540114
-0.0322500006482005 0.05444999679178 0.00564999974519014 16 -0.199868007500966 -0.431052613330334 0.16958081422296 0.504491058824474 -4.06751193194795 -38.4108479427715 -1.20684085832916 36.0711544230851 12.5870781158574 -2.00337235475995 23.5452999873746 39.3535845936336 4.94039088360436 41.3569569483936 -24.7521408457038 74.4820023658566 88.7165995792462 -1321.34078651141 1483.67083782996
-0.0294500006064773 0.05444999679178 0.00564999974519014 16 -0.221223162015279 -0.286950913166899 0.275224169019299 0.455004238652476 -2.93783020167045 -44.6802423847442 -1.88027567843185 61.7543023263287 8.85519995559413 -1.32065788217141 33.1727795855674 46.5008682199823 7.31949538448553 47.8215261021537 -35.0530552639992 106.434544711073 121.835657136707 -2754.34990300433 2900.27999175516
-0.026650000564754 0.05444999679178 0.00564999974519014 16 -0.222026885350545 -0.0843907093493423 0.367587942167496 0.437651259417682 5.14323736844934 -46.7183787450767 -2.02802487598392 72.7324865705357 3.54133268490462 -0.524491195187055 21.2982496503332 49.4492787375045 9.00978175519217 49.9737699326916 -23.3262745263172 119.450865315612 131.567480743576 -3393.5853966203 3563.53294150296
-0.0238500005230308 0.05444999679178 0.00564999974519014 16 -0.193054347435633 0.126163551534216 0.399758924967221 0.461513186041822 17.5573576818587 -40.8840362986179 -1.31575198036518 65.3209862382298 -2.083001688142 0.0312507059974687 -7.53727056045655 45.0922107421443 8.34997632762274 45.0609600361469 6.22151858009137 106.205022536848 115.536592579468 -2684.16070617271 2751.89773088027
-0.0210500004813075 0.05444999679178 0.00564999974519014 16 -0.117318591276805 0.290207363144533 0.319206317301529 0.447075651861831 26.0513622689257 -28.5374635332964 -0.0433748670199995 43.2793349540393 -6.62261827159 0.160715747622808 -39.1310302468023 34.8617700541198 4.78185844372703 34.701054306497 39.0876553797823 71.8167984873357 88.8237609991924 -589.931482278067 1148.15958009788
-0.0182500004395843 0.05444999679178 0.00564999974519014 16 -0.0351507604122161 0.376284437100791 0.160960134351626 0.410772100333396 23.870040091065 -13.9884664765725 1.07626826450824 17.8040728598482 -9.2010821005232 -0.064469934770928 -49.4436875251097 21.85963715036 -0.0899607306671874 21.9241070851309 50.5199557896179 31.7925393364208 63.590077542987 -4.59692643606055 82.7258086915541
-0.015450000397861 0.05444999679178 0.00564999974519014 16 0.0288198697566986 0.394098756456903 0.0209179618464744 0.395704404652615 14.3332188321028 -1.02589406791393 1.63550550075827 -4.56753010720449 -9.97981533355064 -0.443497111129806 -39.9166896216754 7.73816488185193 -3.68722100041342 8.18166199298173 41.5521951224337 -3.54163603929057 42.4978552199403 100.900041605838 -95.0648207060328
-0.0126500003561378 0.05444999679178 0.00564999974519014 16 0.0558629274368285 0.351263304306503 -0.0795228242107987 0.364459126905332 6.80003445810689 8.45014603545759 1.85973121718683 -21.2882084323867 -9.56925131364714 -0.714782560886764 -23.277793091346 -6.36063578196254 -4.99945842350713 -5.64585322107578 25.1375243085328 -29.7383544678443 39.3464167798183 -103.234277162321 167.405782896883
-0.0098500003144145 0.05444999679178 0.00564999974519014 16 0.0750276756286621 0.273932548241379 -0.118475834747466 0.307741314280946 5.39376201970072 14.3973289661862 1.98923108707308 -31.7007994483741 -8.47327162997319 -0.718241129735874 -10.8614086133647 -18.151287145718 -4.3021382831231 -17.4330460159822 12.8506397004378 -46.0981284145603 50.9321850840027 -371.803352005858 432.521354313986
-0.00705000027269125 0.05444999679178 0.00564999974519014 16 0.0909586874643962 0.172624425113657 -0.142107057080527 0.241385771418189 7.94810956651943 17.986495855983 2.08776007355468 -36.0448428944141 -6.90763791613517 -0.45400042868398 -6.38387766986964 -25.0732816538988 -2.83638543734466 -24.6192812252148 8.47163774342432 -54.0313387503971 59.9771891744035 -581.532293210546 592.411300003758
-0.004250000230968 0.05444999679178 0.00564999974519014 16 0.1209841187795 0.0717337795467271 -0.152782026169783 0.207666173570601 7.57515698855005 20.8950881822264 2.07467500044605 -34.1240073838621 -5.01150616661101 0.0421683953695205 -0.0226332909984097 -26.9473946290406 -1.36882787382073 -26.9895630244101 2.09730829144446 -55.0190955660885 61.3183177462359 -672.098898558787 672.735285865673
-0.00145000018924474 0.05444999679178 0.00564999974519014 16 0.131961428324382 -0.0185594661368911 -0.138232004616875 0.192006144300377 2.37786890499987 24.6965852626059 1.9179835008882 -29.0434601781404 -3.12799025420542 0.644304736698958 8.48753879415227 -26.7080548052968 -0.471831691065952 -27.3523595419958 -6.56955529326407 -53.7400454407463 60.6572593614263 -707.727348469282 711.119437723361
0.0013499998524785 0.05444999679178 0.00564999974519014 16 0.132118795712789 -0.0915596467090654 -0.101904994958507 0.190323863673424 -4.8345920338093 29.2253431130977 1.75316510327057 -23.3102205690168 -1.39420231232061 1.26563216836736 18.3301588907539 -26.9591822927662 -0.845599545995495 -28.2248144611336 -16.5769937874833 -52.5355636821145 61.8984840346933 -632.828898240862 695.241272673283
0.00414999989420176 0.05444999679178 0.00564999974519014 16 0.102416831254959 -0.150839808018257 -0.0308654376275566 0.184917630979937 -10.7927649137179 32.3274522046178 1.65747885916414 -21.2886891147514 0.340820527748809 1.6521883526622 21.5337955750615 -27.0702566301267 -2.7390150428434 -28.7224449827889 -19.8763167158974 -53.6161413193692 63.9901353488065 -520.166441321804 722.192068707108
0.006949999935925 0.05444999679178 0.00564999974519014 16 0.0685820682843525 -0.214082361937035 0.0238172131885464 0.226057553350398 -12.0880717591282 31.1968444144912 1.7905445680012 -22.2784524325592 2.20285594586505 1.57451082118606 13.2289516440801 -24.2559809363542 -5.96589933855095 -25.8304917575403 -11.4384070760789 -53.4752968470503 60.4785816116301 -522.266762723383 741.867613023446
0.00974999997764826 0.05444999679178 0.00564999974519014 16 0.0309129778544108 -0.279469484972457 0.0460823198078045 0.284925227786987 -12.148359769075 24.2632204983483 2.10688481781839 -24.5449609472126 3.89304784374088 1.03531480363171 2.7593314072387 -17.4138758766467 -9.01168640675272 -18.4491906802784 -0.652446589420317 -48.8081814455608 52.1827260626743 -488.397852916421 634.855186077074
0.0125500000193715 0.05444999679178 0.00564999974519014 16 -0.00348186850547783 -0.356383561360029 0.0389693518248775 0.358524722435703 -12.0613595358754 12.4781605480389 2.2727047242389 -18.4166200544021 4.29423552340779 0.515694240576834 -2.66219050105249 -8.37303330641469 -10.0963590192247 -8.88872754699152 4.93489522529139 -30.894780602441 32.5246081723087 -120.503192051378 266.799193769068
0.0153500000610948 0.05444999679178 0.00564999974519014 16 -0.0402720932165781 -0.385996545438344 0.0287828807926659 0.38915758865671 -14.3605854469356 -2.02163422335639 1.93626571754503 -1.02402333421299 2.52589779362831 0.757250341270845 3.96884517961318 1.14001443419415 -8.32808412489214 0.382764092923306 -2.03257946206814 0.997610889143398 2.2963264372885 49.8827127732324 51.6686874761034
0.018150000102818 0.05444999679178 0.00564999974519014 16 -0.0885146681467692 -0.362382571957229 0.0621795408780842 0.378182852915463 -14.893612723668 -17.0181316995568 1.06174869743364 27.9420316965557 -1.19296461733594 2.02167078424307 9.78648017317728 12.0113658835646 -4.78564261420256 9.98969509932152 -8.72473147574364 44.9601633961125 46.8756998892429 -237.794365513042 535.599528346601
0.0209500001445413 0.05444999679178 0.00564999974519014 16 -0.129112712542216 -0.223694049351228 0.0878139214396166 0.272801035653756 -10.5522056267401 -30.4136653348423 0.0748142677608666 55.3173512616579 -5.11943386464131 3.77087473126885 2.96615004978239 25.680348793262 -1.81162347763079 21.9094740619931 -2.89133578202153 85.7310165965001 88.533564725176 -1515.43602676352 1667.756548651
0.0237500001862645 0.05444999679178 0.00564999974519014 16 -0.153548553784688 -0.0428245857480215 0.0851585151757657 0.18072928988075 -1.52829488797732 -39.827300718351 -0.790487457527839 69.1109311841688 -7.52982547108597 4.90480799768613 -12.5572119727197 40.3008283125887 -0.445082552026803 35.3960203149026 11.7667245151919 108.93823190252 115.147177255878 -2455.57540944617 2560.44710071104