TITLE="DynamicStudio Exported Data"
VARIABLES= "X (m)[m]" "Y (m)[m]" "Z (m)[m]" "Status[-]" "U[m/s]" "V[m/s]" "W[m/s]" "Length[m/s]" "dU/dX[1/s]" "dU/dY[1/s]" "dU/dZ[1/s]" "dV/dX[1/s]" "dV/dY[1/s]" "dV/dZ[1/s]" "dW/dX[1/s]" "dW/dY[1/s]" "dW/dZ[1/s]" "Vorticity X[1/s]" "Vorticity Y[1/s]" "Vorticity Z[1/s]" "Vorticity Magnitude[1/s]" "Lambda-2[1/s²]" "Q-Criterion[1/s²]"
ZONE T="DynamicStudio Data" I=26 J=26 F=POINT
-0.0350500006899238 0.0600499968752265 0.00564999974519014 16 0.269162167509397 0.195291255891401 -0.260253852091264 0.422278361480124 3.25079498669455 16.0462821024477 3.39730547202242 -10.610532062911 -1.69792240282695 1.3141766442856 -7.4292059872171 -18.3950385318268 -9.52389125336504 -19.7092151761124 10.8265114592395 -26.6568141653587 34.8748083103236 -171.379926362854 199.364215646958
-0.0322500006482005 0.0600499968752265 0.00564999974519014 16 0.279583603342374 0.165379887338107 -0.281113900461545 0.429584128462137 4.06297420320827 16.3148051564578 3.647737410852 -16.6901103306861 -1.58398767360997 1.12223968543064 -10.7288123623799 -18.6166234595804 -9.13486136831178 -19.7388631450111 14.3765497732319 -33.0049154871439 41.0564531828214 -286.634787125366 303.243202630382
-0.0294500006064773 0.0600499968752265 0.00564999974519014 16 0.293125795523326 0.101785134543316 -0.318867997375006 0.444926674144325 4.439983241839 16.248823572559 3.802571732004 -25.500810889361 -1.33801283482552 0.65469506710057 -12.335273336813 -18.6461121572896 -8.3949125011337 -19.3008072243901 16.137845068817 -41.7496344619201 48.7440579012679 -431.250213310924 441.489931733533
-0.026650000564754 0.0600499968752265 0.00564999974519014 16 0.303616548379262 0.0220094494121925 -0.347553737126291 0.462018424420083 2.08629336666891 15.331159859455 3.6190811419293 -28.1450472346678 -1.16929098404777 -0.0085554328556675 -7.9842654110443 -17.5562245339117 -7.62172659603319 -17.547669101056 11.6033465529736 -43.4762070941228 48.2984360554213 -430.749556893996 450.813096215701
-0.0238500005230308 0.0600499968752265 0.00564999974519014 16 0.301423548062642 -0.0568774723467262 -0.35777904628388 0.471271734933284 -3.52601557446401 13.6672953620222 3.0041662735451 -27.5418427184424 -1.14183826651161 -0.813704630457418 -0.660574706272448 -14.8969757198714 -6.58574150063595 -14.083271089414 3.66474097981754 -41.2091380804647 43.703111014685 -363.374879258858 401.052655648639
-0.0210500004813075 0.0600499968752265 0.00564999974519014 16 0.278597480853399 -0.133858767702356 -0.342387306160914 0.461263258290513 -10.7339049750607 11.745354133476 2.09333768158674 -27.3742628429852 -1.20945257247762 -1.67600506022105 8.66952925217352 -11.1174379221773 -4.74451671145379 -9.44143286195627 -6.57619157058678 -39.1196169764613 40.7766033706208 -177.540529143588 354.38688521424
-0.0182500004395843 0.0600499968752265 0.00564999974519014 16 0.235880613724391 -0.211785831396701 -0.296936393501625 0.434354836622247 -18.961013058535 9.68140605897926 1.03732861570147 -27.6264510047531 -0.83159200127778 -2.32617908186709 17.3629304202293 -6.76745036392134 -2.37387939344171 -4.44127128205425 -16.3256018045278 -37.3078570637324 40.9649406635563 34.5378212070247 296.462608183666
-0.015450000397861 0.0600499968752265 0.00564999974519014 16 0.166040964921315 -0.287785612719211 -0.232487199263026 0.405512587648447 -24.5947494039769 7.34032763553973 -0.0335154902103651 -26.4599634210961 0.843714163709461 -2.50920414323257 21.6351202696686 -2.6038701536545 -0.80558031002289 -0.094666010421923 -21.6686357598789 -33.8002910566358 40.14970003451 -1.62298435172052 186.79869852605
-0.0126500003561378 0.0600499968752265 0.00564999974519014 16 0.0916502714157104 -0.355087554166069 -0.167413236050634 0.40313041931757 -26.1780698031616 4.2927060760107 -0.821963803686866 -19.9569456944518 4.05751777783363 -2.02824873142737 17.9495821670001 1.4336419009361 -1.19740850828841 3.46189063236347 -18.7715459706869 -24.2496517704625 30.8609986207309 -6.35778269432801 23.600344828127
-0.0098500003144145 0.0600499968752265 0.00564999974519014 16 0.0115959715843201 -0.390633354214951 -0.127246945179456 0.410999597371714 -25.5061703131418 0.158260511980549 -1.09402805355718 -8.22396572783081 7.49648350627683 -1.0649897336786 12.7154202898769 5.84063371659657 -2.75144343476908 6.90562345027516 -13.809448343434 -8.38222623981136 17.5684437421857 52.8307738161399 -120.221180050914
-0.00705000027269125 0.0600499968752265 0.00564999974519014 16 -0.0597320620218913 -0.393743066105914 -0.0906216817195915 0.408428464406633 -26.0564360255392 -4.94566121943964 -0.8324766555367 10.6070469709938 8.88839103192099 0.0535235578058914 13.920940868915 10.5737103040488 -3.29586931989763 10.5201867462429 -14.7534175244517 15.5527081904335 23.8793716392078 29.7863336628495 -111.534382957121
-0.004250000230968 0.0600499968752265 0.00564999974519014 16 -0.143847994804382 -0.329456465575543 -0.0391488207659374 0.361616424524847 -28.1972451950129 -10.5114156262697 -0.375006034822367 34.272331842873 6.95640124684819 0.982856382193509 23.3133813569845 14.6467629506958 -1.69242329585018 13.6639065685022 -23.6883873918068 44.7837474691427 52.4730986060192 30.3031254368575 194.394866227413
-0.00145000018924474 0.0600499968752265 0.00564999974519014 16 -0.227355519135793 -0.207500376318737 0.0511116948432755 0.312024588139581 -24.9698951825176 -15.3187103179053 -0.296816662971121 58.7216447650378 2.26155349775845 1.34212271905735 32.0626227755544 16.3179285523352 1.7503719551138 14.9758058332778 -32.3594394385256 74.0403550829431 82.1789648385762 -188.532269770596 790.937125386023
0.0013499998524785 0.0600499968752265 0.00564999974519014 16 -0.291788356304169 -0.0112038580349569 0.147857199083082 0.327303716187657 -11.5052158023247 -18.5489720960966 -0.845476014447354 73.9865986998741 -3.30102095082736 1.24316241903501 28.6615015905206 15.3193441247836 5.46118272473083 14.0761817057486 -29.506977604968 92.5355707959707 98.1408807853763 -1144.21565823783 1334.68292803437
0.00414999989420176 0.0600499968752265 0.00564999974519014 16 -0.297861540317535 0.19627917729454 0.21361391348027 0.415785902445131 10.4864532605413 -19.4736439612083 -1.59070047116134 69.1192501375514 -7.95649965588446 1.02811161203931 13.7599794998056 12.5762176783628 8.14792995564066 11.5481060663235 -15.3506799709669 88.5928940987597 90.6515472238844 -1223.41684023214 1292.14034149004
0.006949999935925 0.0600499968752265 0.00564999974519014 16 -0.233182640473048 0.36823963972119 0.222745131356642 0.489479284161303 29.0206093569837 -17.4435482141178 -1.85238579040948 44.7632275439182 -10.6233617693782 1.13889952138592 -4.33632721258769 8.98730599909297 8.80376534299873 7.84840647770705 2.48394142217821 62.2067757580359 62.7491067620782 48.5783106480218 616.229947221069
0.00974999997764826 0.0600499968752265 0.00564999974519014 16 -0.128587500254313 0.445030809783687 0.181506887931221 0.49752579555723 37.7079771130482 -12.2937491549134 -1.18304340268607 10.1794610478072 -10.9900699692563 1.57408643368028 -18.0901679277851 4.58609906477416 6.98949100607707 3.01201263109388 16.907124525099 22.4732102027207 28.2837100927856 54.3095590652157 -131.145364676649
0.0125500000193715 0.0600499968752265 0.00564999974519014 16 -0.00707326769828787 0.427411692573073 0.107164227575219 0.440698261553077 34.8657901648464 -4.91861700778135 -0.0017441099338198 -17.9394251431111 -9.64537482569289 1.83334912828338 -24.8328899204596 -0.620713733346736 3.9708647508922 -2.45406286163011 24.8311458105258 -13.0208081353297 28.1451536021656 114.584884495577 -323.289244387572
0.0153500000610948 0.0600499968752265 0.00564999974519014 16 0.0836317924658458 0.348364484653963 0.0266411116893869 0.359251777603561 27.0478556465184 2.36555953488696 0.807163107288453 -32.5179757221398 -7.62136987672969 1.57201631674112 -28.5173891495622 -5.5405414114548 1.36550566251674 -7.11255772819592 29.3245522568507 -34.8835352570267 46.1235175862587 5.65333911674536 -70.9635224682292
0.018150000102818 0.0600499968752265 0.00564999974519014 16 0.15754187087218 0.248051758622751 -0.064626780305407 0.300874952042188 18.0988736789151 7.74456577454586 0.753444812253589 -34.9036023866562 -5.76938601376105 0.845914245668206 -27.2781076545976 -8.92417102091405 0.479591943374077 -9.77008526658225 28.0315524668512 -42.648168161202 51.9623781915752 7.90400648423284 199.908610832054
0.0209500001445413 0.0600499968752265 0.00564999974519014 16 0.191690493027369 0.154278424767544 -0.129995351048031 0.278290978581649 9.12017498825963 10.5928950266345 -0.120706369573042 -31.7565947627954 -4.16665788409367 0.1151818295614 -22.7918365999543 -10.295612032621 0.96537906982487 -10.4107938621824 22.6711302303812 -42.3494897894299 49.151236608948 -249.850154496899 301.610395019387
0.0237500001862645 0.0600499968752265 0.00564999974519014 16 0.209365917841593 0.0719705494997712 -0.192053969114398 0.293084586086587 2.35265812351491 11.5292205161658 -1.251025715798 -28.4005880149193 -2.43797919213139 -0.335855514492347 -17.1233727279793 -10.6458921318678 1.30691828898093 -10.3100366173754 15.8723470121813 -39.9298085310851 44.1884358634229 -301.357067368869 296.592141593367
0.0265500002279878 0.0600499968752265 0.00564999974519014 16 0.203592554926872 -0.00187739683067775 -0.227041239097586 0.304960943878849 -2.5652078815219 11.6042057836186 -2.30344731535299 -24.9614745677188 -0.328264013184961 -0.477542802992086 -12.3870621518311 -11.6382797641182 0.664969567015912 -11.1607369611261 10.0836148364781 -36.5656803513374 39.5384662985563 -250.481887380798 254.485360427908
0.029350000269711 0.0600499968752265 0.00564999974519014 16 0.192899260918299 -0.0633866249059793 -0.267648221103397 0.335951721739315 -3.73708369190189 11.3813942464978 -3.23418235642724 -20.3150888452394 1.91618174390972 -0.482034193974943 -9.26046268576222 -14.1303256843362 -0.8340588633775 -13.6482914903613 6.02628032933498 -31.6964830917372 35.0322559307616 -198.427976026354 188.810517980982
0.0321500003114343 0.0600499968752265 0.00564999974519014 16 0.180626800855001 -0.111640768564151 -0.288811961079094 0.358471827700669 -2.91756025292423 11.113343021193 -4.01845804917366 -12.4589634313138 3.72374691326351 -0.463528704473879 -4.94161690717893 -17.2711555156559 -2.11914177422016 -16.807626811182 0.923158858005273 -23.5723064525068 28.9655342224508 -99.0576870787257 98.024697907334
0.0349500003531575 0.0600499968752265 0.00564999974519014 16 0.1746273402373 -0.130175958587788 -0.302712153267736 0.372927789107479 -1.9183710956564 10.9398136956016 -4.44619718364848 -7.13805208102923 4.65984247682564 -0.39690083754845 -3.66636565182913 -19.233313486294 -2.70542496139798 -18.8364126487455 -0.77983153181935 -18.0778657766308 26.1194909929294 -17.6102876446036 37.7977048256032
-0.0350500006899238 0.0572499968335032 0.00564999974519014 16 0.224667580127716 0.200366895148084 -0.206603722472598 0.365113013149711 2.74512082505258 24.8939905804487 3.06014524026779 -10.5522246730697 -2.04174991598318 1.63276629987981 -5.99563262680784 -24.5429501993808 -7.73201239497279 -26.1757164992606 9.05577786707563 -35.4462152535184 44.9845464890582 -273.080893540047 310.06406744357
-0.0322500006482005 0.0572499968335032 0.00564999974519014 16 0.232900964816411 0.170593972274558 -0.226781794275157 0.367117345004956 3.71909669069943 25.3169184621681 3.25282689303913 -16.9151846716952 -1.87408961466019 1.38847387152381 -9.20153256838099 -26.4742261375982 -7.67817796301856 -27.862700009122 12.4543594614201 -42.2321031338633 52.1055818171323 -456.752156102251 473.793901805482
-0.0294500006064773 0.0572499968335032 0.00564999974519014 16 0.246623410781225 0.105147045688354 -0.26560045595436 0.377389202502559 4.576281463862 25.5464916139536 3.38909852457113 -25.7389892616318 -1.49282851430848 0.806067465149487 -11.0348344607121 -29.2921152417949 -7.65789013564472 -30.0981827069444 14.4239329852832 -51.2854808755854 61.1894679962539 -681.034673114508 688.106088210559
-0.026650000564754 0.0572499968335032 0.00564999974519014 16 0.259535819689433 0.0255229534201135 -0.296866314980822 0.39514538061762 3.00549216347412 24.7968824994934 3.25130829621111 -28.2054889910138 -1.25044900261764 -0.00298155405556537 -8.49453029539432 -30.4455851080051 -7.75944976693176 -30.4426035539495 11.7458385916054 -53.0023714905072 62.2412099736237 -691.504772727938 709.559374091349
-0.0238500005230308 0.0572499968335032 0.00564999974519014 16 0.262913514773051 -0.0543946814488542 -0.317522737886078 0.415816049106949 -1.99739050159483 22.9036801289632 2.72041369788089 -27.3209200119343 -1.4200808586252 -0.962849061722249 -2.97005334608499 -28.5122578551892 -7.35784756242167 -27.549408793467 5.69046704396589 -50.2246001408975 57.5661515072969 -586.133635381735 634.358075200963
-0.0210500004813075 0.0572499968335032 0.00564999974519014 16 0.245613965590795 -0.130431107733893 -0.31108508005583 0.417267804882271 -8.97634200503201 20.2581391622474 1.90726490066695 -27.0273309491181 -1.96539735701184 -1.98260742718955 5.23140839250417 -24.024504288272 -5.72078350401698 -22.0418968610825 -3.32414349183722 -47.2854701113655 52.2762932010464 -494.213831826937 570.151990206756
-0.0182500004395843 0.0572499968335032 0.00564999974519014 16 0.208191423416138 -0.209135820102723 -0.280149983984108 0.406897374727795 -16.7333053740248 16.9608511992074 0.965786116618853 -28.126760608584 -1.93797317078142 -2.77502506720328 13.3859759123548 -18.0594247734802 -3.23210249285433 -15.2843997062769 -12.4201897957359 -45.0876118077914 49.2012878639719 -208.215529187826 506.786638061493
-0.015450000397861 0.0572499968335032 0.00564999974519014 16 0.145833025376002 -0.289313516508167 -0.226046885947386 0.395052878449392 -21.8633963173831 12.7821499025832 -0.0259271685960189 -28.382580209689 -0.0734821666867779 -3.04544225255429 17.5413434715063 -11.3765535375323 -1.34854422736348 -8.33111128497799 -17.5672706401023 -41.1647301122722 45.5252832852416 70.8234173769111 359.787975978876
-0.0126500003561378 0.0572499968335032 0.00564999974519014 16 0.0778158056735991 -0.366497932368075 -0.171302495441244 0.411971575460131 -22.0767395030802 6.96534036908442 -0.796055808509275 -22.9189255052088 3.7398465612884 -2.5628803033674 12.6052059987668 -3.28423792266688 -1.4259432145072 -0.721357619299477 -13.401261807276 -29.8842658742932 32.7594798751067 5.01628594809986 104.839205557107
-0.0098500003144145 0.0572499968335032 0.00564999974519014 16 0.0117453177769979 -0.414069859781303 -0.143786662599693 0.438481933049183 -20.1209083394358 -1.14310338335956 -1.06057400698318 -10.0447383686542 7.37627710338772 -1.46019177570381 6.39519373218587 6.91136753137058 -2.86922796902881 8.37155930707438 -7.45576773916905 -8.90163498529461 14.3146981534267 55.2630996213559 -106.457819230134
-0.00705000027269125 0.0572499968335032 0.00564999974519014 16 -0.0477841997146606 -0.421385900237365 -0.11985947810191 0.440699105004863 -19.7631686109684 -11.1203255278296 -0.708977761092266 11.5971194862194 7.74300805377078 -0.0981086397925784 7.35714596484906 18.2176967973101 -3.56633736674442 18.3158054371027 -8.06612372594133 22.7174450140491 30.2756236721614 2.97959593018952 25.808684225665
-0.004250000230968 0.0572499968335032 0.00564999974519014 16 -0.112324500878652 -0.351661530778122 -0.0836157332966104 0.3785158075716 -22.3400309900864 -21.4155556783837 -0.0388476459640935 37.9631217508635 3.70614222557901 1.04803083009524 18.7780003413355 27.959188501476 -2.13720684072104 26.9111576713808 -18.8168479872996 59.3786774292472 67.8536035051761 -475.178627457169 741.457879519695
-0.00145000018924474 0.0572499968335032 0.00564999974519014 16 -0.183917721112569 -0.214251282997429 0.00380180909550593 0.282389437050475 -21.1988079794993 -29.44142552245 0.208520300772264 63.3487936112503 -3.04684727892731 1.48225118853309 31.1725513649932 32.8275857271397 1.4524934240788 31.3453345386067 -30.9640310642209 92.7902191337002 102.719647507005 -1611.47374789347 1839.29282687898
0.0013499998524785 0.0572499968335032 0.00564999974519014 16 -0.237395592927933 -0.00146412934778103 0.104120377357031 0.259229366001081 -10.0999275757454 -33.5410470259838 -0.317828432311328 77.64280480623 -9.47601074863368 1.29550083556148 30.7530529928013 31.9589672112709 5.46553758434374 30.6634663757094 -31.0708814251126 111.183851832214 119.446627206277 -2555.4747169169 2561.30628873814
0.00414999989420176 0.0572499968335032 0.00564999974519014 16 -0.240880722204844 0.219877161320377 0.178775607260565 0.371927689412361 8.83038388563663 -32.9820419226211 -1.19674865679249 71.1533903403165 -13.6145308227356 0.943850113182337 17.7905274887639 26.7512433021723 8.15599263240936 25.8073931889899 -18.9872761455564 104.135432262938 108.952863437487 -2195.50827601273 2183.5847282393
0.006949999935925 0.0572499968335032 0.00564999974519014 16 -0.182093706130982 0.399731050815123 0.197138739742707 0.481463096722502 24.7746960071803 -27.7567577802766 -1.6129976518999 44.9498155335141 -14.9463049772654 0.961846009759181 0.140339662923993 19.4403323307923 8.34599335752545 18.4784863210331 -1.75333731482389 72.7065733137907 75.0384864685435 -765.535628883714 940.926427506345
0.00974999997764826 0.0572499968335032 0.00564999974519014 16 -0.0911543345451356 0.476758198828029 0.165858148658105 0.512948748251136 31.0668124608082 -18.5862794646347 -1.00149069085625 8.89557044118789 -13.726766293616 1.34996340056461 -13.0291652754692 11.3697317810709 5.91512157208419 10.0197683805063 12.0276745846129 27.4818499058226 31.6277218363653 52.804452722118 -186.940144287047
0.0125500000193715 0.0572499968335032 0.00564999974519014 16 0.00594998478889464 0.454913918211047 0.108347060157297 0.467676341871004 27.5063196740221 -7.04402170394777 0.197578662102324 -20.0230575101384 -10.8074750344905 1.56541187654614 -19.6908465442681 2.90229001860371 2.50232568177774 1.33687814205757 19.8884252063704 -12.9790358061906 23.7863841475429 191.551893074653 -397.183555199425
0.0153500000610948 0.0572499968335032 0.00564999974519014 16 0.0766145042578379 0.369100219466879 0.0406271911323226 0.379150791813066 20.9462715857759 3.98897400006288 1.08695819773411 -34.4327997923818 -7.48368691354218 1.26540952529384 -24.0418681287125 -5.07533181906822 -0.211743734827563 -6.34074134436206 25.1288263264466 -38.4217737924447 46.3453947517831 -1.4152841302576 10.300465487501
0.018150000102818 0.0572499968335032 0.00564999974519014 16 0.133721309502919 0.264013141031707 -0.0385731380286719 0.298449684586837 14.1512842898494 12.2451453699848 1.07762229220493 -36.1853317963841 -4.90446138789512 0.564846985004348 -24.3089227216106 -11.3921612364186 -0.9773309139228 -11.957008221423 25.3865450138155 -48.4304771663689 55.9728311943199 -252.808898079876 397.283679792882
0.0209500001445413 0.0572499968335032 0.00564999974519014 16 0.16135892033577 0.166078111896447 -0.102884263525575 0.253384711662353 7.40897906695432 16.9544875963262 0.171084220499673 -32.7889045058191 -3.12466494503259 -0.0527890996327708 -21.41668077455 -15.2793549909076 -0.125809094108115 -15.2265658912748 21.5877649950497 -49.7433921021453 56.3230411479228 -552.793992479774 535.086964636554
0.0237500001862645 0.0572499968335032 0.00564999974519014 16 0.176700929403305 0.0792942546401173 -0.162668640391591 0.252926637264192 1.83445462618303 18.871778518453 -1.05975813737589 -29.6423009658142 -1.42686848176806 -0.344501264169444 -16.2521728838333 -17.4089506273755 0.861080693163511 -17.0644493632061 15.1924147464575 -48.5140794842672 53.6248152081067 -539.002720038033 533.915599713916
0.0265500002279878 0.0572499968335032 0.00564999974519014 16 0.171011104981105 -0.000421244323564073 -0.196592894835655 0.260564275704674 -2.55664521123003 19.3564242563421 -2.249991922329 -26.5280972066202 0.678228715046066 -0.367432647877375 -10.7661303617502 -19.5702863841856 1.03757553489925 -19.2028537363082 8.51613843942122 -45.8845214629623 50.4644777583448 -479.024922678583 478.391646553052
0.029350000269711 0.0572499968335032 0.00564999974519014 16 0.160819976727168 -0.0692499595337237 -0.226644868165992 0.286402720091708 -3.609203345629 19.2942517521509 -3.27698687707616 -21.6883740089851 2.86998793199482 -0.313559474118304 -6.75271429774897 -22.8682845888737 0.300984588861358 -22.5547251147554 3.4757274206728 -40.982625761136 46.9081221152832 -375.604468866145 378.580962302698
0.0321500003114343 0.0572499968335032 0.00564999974519014 16 0.149454147020976 -0.122332518123245 -0.238354260481622 0.306780932493991 -2.81399380184318 19.1521553632319 -4.07752808138862 -13.2811145953807 4.46290253668946 -0.287383258781283 -2.8327936820852 -26.4379129248741 -0.530853294889246 -26.1505296660929 -1.24473439930343 -32.4332699586126 41.6811296122149 -187.205826548148 221.779452057071
0.0349500003531575 0.0572499968335032 0.00564999974519014 16 0.14427037636439 -0.144630099868712 -0.244202063760992 0.318380990684877 -1.84059396954819 19.0805063119786 -4.48908055282488 -7.71820912847389 5.16640752871727 -0.250710702370075 -1.8331097901226 -28.503768780324 -0.955336188427521 -28.253058077954 -2.65597076270228 -26.7987154404525 39.0315336709553 -46.5785166359673 119.205632001253
-0.0350500006899238 0.05444999679178 0.00564999974519014 16 0.13030589222908 0.20753061908142 -0.122475832242829 0.273950566507003 1.65268242971314 36.5026778724611 2.27584726673782 -10.5486600392196 -1.65424002830424 2.14219170138884 -2.16258499474722 -35.7749960699 -4.18037011282692 -37.9171877712888 4.43843226148503 -47.0513379116807 60.5907683455337 -418.656814642899 463.885530154569
-0.0322500006482005 0.05444999679178 0.00564999974519014 16 0.135889605681101 0.178035554217846 -0.12902202012095 0.258474999127404 2.67546031599148 37.4875324972294 2.44841658897573 -17.4282355721682 -1.31003764043758 1.8210054531177 -4.52599555216539 -39.7969396919184 -4.64894192766326 -41.6179451450361 6.97441214114113 -54.9157680693976 69.2563164300672 -713.126539846253 727.040789724147
-0.0294500006064773 0.05444999679178 0.00564999974519014 16 0.147464706103007 0.109439770782095 -0.15077109611438 0.237602244093812 4.23318321702723 38.6446939669867 2.61840876724992 -26.3487779372705 -0.568459164677574 1.0644384074278 -6.2994903947279 -46.3899316699215 -5.78251687388004 -47.4543700773493 8.91789916197782 -64.9934719042572 80.9666447067599 -1064.07369605014 1060.51660518978
-0.026650000564754 0.05444999679178 0.00564999974519014 16 0.161404310862223 0.0294339189441719 -0.170501929239059 0.236619134948048 4.20907649133607 38.5338170004197 2.58710682084928 -28.4758626977266 0.0693237059830093 0.0225123797132227 -7.35486221827364 -51.1114739468162 -7.36498633251821 -51.1339863265294 9.94196903912292 -67.0096796981463 84.8753467107189 -1093.37574910554 1086.24356704662
-0.0238500005230308 0.05444999679178 0.00564999974519014 16 0.171543449958165 -0.0511381868769725 -0.198901097053119 0.267589080101464 0.604494882698281 36.6215496587948 2.21449803099429 -26.8092569543406 -0.00233378889032201 -1.18684735856417 -6.04535501504282 -51.1091676077949 -8.19194116771434 -49.9223202492307 8.25985304603711 -63.4308066131354 81.1414225842871 -908.181290240141 929.590902055121
-0.0210500004813075 0.05444999679178 0.00564999974519014 16 0.163963833649953 -0.122591324671133 -0.207154634062511 0.291248715093107 -5.42105341323633 33.1099166494218 1.57938018926057 -25.8867719168104 -1.10923938040504 -2.45789645262716 -1.15532338867816 -46.134887724572 -7.17922305861462 -43.6769912719448 2.73470357793872 -58.9966885662322 73.4558876606207 -716.478724330264 798.434453012731
-0.0182500004395843 0.05444999679178 0.00564999974519014 16 0.138879185914993 -0.199575198967553 -0.19946427620016 0.314489563902212 -11.6758811306905 27.7944917773318 0.826240088009396 -28.0630172131959 -2.34096599433125 -3.49644811998216 4.51562203605382 -36.8428815818806 -4.7566271613988 -33.3464334618984 -3.68938194804443 -55.8575089905277 65.1587098891181 -627.790498195809 741.45284562197
-0.015450000397861 0.05444999679178 0.00564999974519014 16 0.0937780845165253 -0.2853571198935 -0.167962392319556 0.344142964831784 -15.1215565931565 20.173929106395 -0.0498530580550886 -30.4496743575172 -2.20210624598574 -3.93698615794096 6.94502633702056 -24.0590818070418 -2.53117803907313 -20.1220956491008 -6.99487939507565 -50.6236034639122 54.923367510875 -498.841676188585 597.064079713008
-0.0126500003561378 0.05444999679178 0.00564999974519014 16 0.0467891931533813 -0.376939277099136 -0.144951379222548 0.406550549814513 -12.6198077852177 9.7919671978047 -0.784530354770066 -26.5873400054977 -0.279926325843834 -3.45733724636471 -0.477970618810777 -8.47190366984392 -2.15696667388082 -5.01456642347921 -0.306559735959289 -36.3793072033024 36.7245673613651 -107.015417593238 262.034063651858
-0.0098500003144145 0.05444999679178 0.00564999974519014 16 0.0177104187011718 -0.439554153008697 -0.165327231308135 0.469951705784517 -8.36026677969503 -3.31716232735457 -0.999148849233181 -11.6239226648005 1.33124192849205 -2.0946380856373 -7.87893570127164 8.68979692715368 -3.35373959061908 10.784435012791 6.87978685203846 -8.30676033744593 15.2524677668356 7.20728915849702 -15.7847070423813
-0.00705000027269125 0.05444999679178 0.00564999974519014 16 -0.00111785252888996 -0.443869634449026 -0.192968922362585 0.484002589846341 -6.63897395884816 -18.2247763947454 -0.434628628104075 14.4976769111712 -0.356862150696514 -0.286228490133087 -6.41466963290576 25.4294126924265 -4.1630504337331 25.7156411825596 5.98004100480169 32.7224533059167 42.0453807475585 -270.626274074645 300.200760362532
-0.004250000230968 0.05444999679178 0.00564999974519014 16 -0.0163694206873577 -0.355072115275155 -0.207785013554579 0.411726580193081 -10.3547642918451 -33.0390075945529 0.655656067552458 44.4907465736404 -5.74817857023352 1.25134285145399 9.13677596922092 39.10096095813 -2.93619884049023 37.849618106676 -8.48111990166846 77.5297541681933 86.6913246350993 -1429.13524583153 1521.81329971413
-0.00145000018924474 0.05444999679178 0.00564999974519014 16 -0.0566683181126912 -0.187592039836842 -0.141238105271477 0.241558013877713 -13.6461335728787 -44.5510788553485 1.26409660915106 69.7693193576609 -11.9433396349148 1.8201762413762 28.3499720236132 46.6963674459608 0.812865608414806 44.8761912045846 -27.0858754144622 114.320398213009 125.764345629352 -3082.52261985041 3129.64533155509
0.0013499998524785 0.05444999679178 0.00564999974519014 16 -0.0944218889872233 0.0453622508214903 -0.0385514564453236 0.11162186933376 -8.12659909044566 -49.977460243735 0.832409062214852 80.9445458025898 -15.2364429079788 1.45972428033029 34.0737108754568 47.0669074205541 5.16397818993735 45.6071831402238 -33.2413018132419 130.922006046325 142.567776749933 -3988.70123686822 3951.50907026541
0.00414999989420176 0.05444999679178 0.00564999974519014 16 -0.105053108930588 0.276712787716339 0.0616619667999718 0.302338090110013 4.21861143084448 -47.8980213776052 -0.26896185772177 71.4277918607429 -14.6740653506632 0.824246774644846 25.4015327331829 41.3429682025782 7.7916558561733 40.5187214279334 -25.6704945909047 119.325813238348 128.605562802273 -3277.4482736461 3250.63565815011
0.006949999935925 0.05444999679178 0.00564999974519014 16 -0.0723775521914165 0.454970626353752 0.112727681111234 0.47428294402673 15.0070977304551 -38.7439347884324 -1.01695390055859 43.185117070729 -11.8519942537748 0.63674284309767 9.06919601723938 32.1140175752238 7.26106235598449 31.4772747321261 -10.086149917798 81.9290518591614 88.3454514011174 -1509.75433173652 1506.98131004624
0.00974999997764826 0.05444999679178 0.00564999974519014 16 -0.0184959348042806 0.523737435651322 0.111888889339364 0.535875101739672 17.527273923107 -24.6072762896479 -0.617893580896682 6.28640501599475 -8.69766904944596 0.929071854209162 -3.17330920719871 21.3999057023593 3.87649770491553 20.4708338481501 2.55541562630202 30.8936813056426 37.1484149335652 35.0976790700538 14.6300027429796
0.0125500000193715 0.05444999679178 0.00564999974519014 16 0.030123349428177 0.487827033532473 0.0885962470514157 0.496721175124898 13.2874488801925 -8.391124718804 0.518782198504031 -22.9516690981852 -6.07918329533155 1.07064074961321 -9.54808700162233 9.86873185391028 -0.150797407319965 8.79809110429707 10.0668692001264 -14.5605443793812 19.767592549319 199.26443860833 -280.066631842693
0.0153500000610948 0.05444999679178 0.00564999974519014 16 0.0589937206109366 0.387287174578135 0.0506195825732235 0.395011337564029 9.19262065439585 6.54840130239504 1.48552688552081 -36.7797471371214 -4.12741248349344 0.708310671164881 -14.5440776348201 -1.79419634495587 -3.00389675268755 -2.50250701612075 16.0296045203409 -43.3281484395164 46.2659616742269 -126.362441947024 210.567911202177
0.018150000102818 0.05444999679178 0.00564999974519014 16 0.0833383973439534 0.273129809834839 0.000681722199466703 0.285561983179539 6.12218288658688 18.0749822671158 1.54650741214081 -37.6532942268347 -2.89172823395031 0.0591343332093629 -16.8343970873594 -12.4496830557489 -3.53122479915575 -12.5088173889583 18.3809044995002 -55.7282764939505 59.9997413634113 -701.879623897644 678.242198340735
0.0209500001445413 0.05444999679178 0.00564999974519014 16 0.0941191991170247 0.170968256361472 -0.0466656161666227 0.200664516190389 3.09741393083213 25.7063065801591 0.59281587604317 -33.9464113632487 -2.04605538893266 -0.347609918369361 -16.5519121871551 -20.901783522906 -2.02834331851385 -20.5541736045367 17.1447280631983 -59.6527179434078 65.3824327397063 -869.502183890619 866.713430320355
0.0237500001862645 0.05444999679178 0.00564999974519014 16 0.102294370333354 0.0808517031249357 -0.0942929876838267 0.160910856148497 -0.147668618932805 30.0827040392703 -0.817027489587261 -31.2317679675962 -0.996877992985532 -0.341442459371222 -12.8506342369622 -27.0384951207041 0.118712934951173 -26.6970526613329 12.033606747375 -61.3144720068666 67.9485451620068 -919.184743650564 919.815955799401