TITLE="DynamicStudio Exported Data"
VARIABLES= "X (m)[m]" "Y (m)[m]" "Z (m)[m]" "Status[-]" "U[m/s]" "V[m/s]" "W[m/s]" "Length[m/s]" "dU/dX[1/s]" "dU/dY[1/s]" "dU/dZ[1/s]" "dV/dX[1/s]" "dV/dY[1/s]" "dV/dZ[1/s]" "dW/dX[1/s]" "dW/dY[1/s]" "dW/dZ[1/s]" "Vorticity X[1/s]" "Vorticity Y[1/s]" "Vorticity Z[1/s]" "Vorticity Magnitude[1/s]" "Lambda-2[1/s²]" "Q-Criterion[1/s²]"
ZONE T="DynamicStudio Data" I=26 J=26 F=POINT
-0.0350500006899238 0.0600499968752265 0.00564999974519014 16 0.188917864759763 -0.104849534749907 -0.323660528145265 0.389152312137461 1.0409906587945 14.5200389683335 -2.36853083229789 -5.86475414159959 1.01681426907767 -1.74148321644018 -8.00895457693427 -12.6005967289679 -13.5570915177935 -10.8591135125277 5.64042374463638 -20.3847931099331 23.7755024433091 -57.7827667480258 17.4039195280603
-0.0322500006482005 0.0600499968752265 0.00564999974519014 16 0.191759616335233 -0.121308500055845 -0.342670597353329 0.410987397535888 -2.28938362328043 13.5179281999598 -1.66510478255731 -10.7325395463782 1.05513765442444 -1.62198738927424 -7.33412743690913 -10.4738920293035 -13.6848191123446 -8.85190464002923 5.66902265435182 -24.250467746338 26.4306492452967 -130.639812575243 130.355905489526
-0.0294500006064773 0.0600499968752265 0.00564999974519014 16 0.17505066315333 -0.164473306368454 -0.35903342172193 0.431971296606094 -14.2313559463946 10.58741129296 -0.508901800413737 -18.9772957852918 1.61276417698882 -1.38794654394512 5.49056451682596 -5.28764886747222 -14.0572995650129 -3.8997023235271 -5.99946631723969 -29.5647070782518 30.4183033538468 11.0705815096547 350.80712343456
-0.026650000564754 0.0600499968752265 0.00564999974519014 16 0.106583262284597 -0.225295615981255 -0.299323118887842 0.389502805998038 -34.2699257882013 5.0976101672958 0.118450735896754 -22.2023377714222 3.21121018088064 -0.927326537267951 32.272936953057 3.14648083182213 -13.4884777607975 4.07380736909008 -32.1544862171603 -27.299947938718 42.3768102601731 -6.09678393715337 421.160784963235
-0.0238500005230308 0.0600499968752265 0.00564999974519014 16 -0.0294449345270793 -0.283590995615426 -0.157197734104314 0.325579459688389 -49.4344915155444 -2.42304211744913 -0.181670011167173 -18.2457661594752 5.71487629489898 -0.00932044777440694 54.0914564399355 12.5447987652985 -11.1438536389184 12.5541192130729 -54.2731264511027 -15.8227240420261 57.9097294079633 36.609697414796 170.426448223819
-0.0210500004813075 0.0600499968752265 0.00564999974519014 16 -0.186721914211909 -0.32019354160048 0.0259726470041399 0.371569045699477 -48.2206823086526 -10.3472916138836 -0.855254380977079 -2.2236244197142 7.80061734117968 1.40493780580787 57.6306883696808 19.6936678948233 -7.37760352139917 18.2887300890154 -58.4859427506579 8.1236671941694 61.8148616142082 80.6384081879568 -79.3358471452837
-0.0182500004395843 0.0600499968752265 0.00564999974519014 16 -0.31483948191007 -0.290667676274898 0.183169516948595 0.466007155888868 -28.963048379729 -16.9127881726798 -1.09096872694646 21.7160938667729 7.8430483440349 2.82155603053998 43.9682246863516 22.7156425890276 -3.19059229113769 19.8940865584876 -45.059193413298 38.6288820394527 62.5962947679138 -12.0732296407395 191.380915954142
-0.015450000397861 0.0600499968752265 0.00564999974519014 16 -0.358647994200389 -0.198828034775409 0.281011226220677 0.497119985937663 -3.05672486798782 -20.8452254384167 -0.546292822413864 46.3606267167013 5.30223887185487 3.34061635347968 22.1955890040887 22.4225490947385 0.290496094374364 19.0819327412588 -22.7418818265025 67.2058521551179 73.470673809678 -836.961369956048 888.062699777893
-0.0126500003561378 0.0600499968752265 0.00564999974519014 16 -0.334562277793884 -0.0381344576272871 0.310695542545291 0.458167954726945 18.5610694617157 -21.6902212452122 0.478421487472222 61.6034711590928 1.30815490269322 2.60556374376996 -1.11628078000472 21.2307210041003 2.40856135341104 18.6251572603304 1.59470226747695 83.293692404305 85.3655595227778 -965.344848173645 1353.54597466454
-0.0098500003144145 0.0600499968752265 0.00564999974519014 16 -0.251165978908539 0.1364064866025 0.275714472853191 0.397126615941359 30.3699689378243 -19.5177397842403 1.50104460863702 60.6906901126078 -2.28815385479454 1.29883409535189 -20.4062939522963 20.035450273862 2.91577721745359 18.7366161785102 21.9073385609333 80.2084298968481 85.23135863731 -357.890836091446 1201.54228368055
-0.00705000027269125 0.0600499968752265 0.00564999974519014 16 -0.15609095732371 0.294072153057981 0.19379380175514 0.385225720534207 34.0759998875033 -14.5285517177651 2.31824965560962 45.9320306894945 -4.48066472156396 0.544017002052537 -34.2301053973578 17.1243850584088 1.54723998811106 16.5803680563562 36.5483550529675 60.4605824072596 72.568401436073 43.8249035559862 630.471812284069
-0.004250000230968 0.0600499968752265 0.00564999974519014 16 -0.0472610521316528 0.39064271536127 0.0710347758450856 0.399851569326392 29.258833405366 -7.56584282275037 2.65997373452774 20.6777700054859 -5.34102132807646 0.898175213128035 -34.2224176438441 10.9770002619144 -0.585398061780931 10.0788250487863 36.8823913783718 28.2436128282363 47.5351993131695 1.5626147013274 67.3427262166193
-0.00145000018924474 0.0600499968752265 0.00564999974519014 16 0.0217177478472392 0.410662568594174 -0.0159104462258983 0.411544102272196 18.9929196136289 -0.167227581253289 2.10093269689718 -5.39446390039654 -5.32852696728678 1.8520967426351 -25.56591977198 2.58377751639656 -1.61351594186852 0.731680773761463 27.6668524688772 -5.22723631914325 28.1658318149043 38.1498845395429 -75.2272320163863
0.0013499998524785 0.0600499968752265 0.00564999974519014 16 0.0705380272865295 0.36267794206525 -0.0895553430216387 0.380172411437079 10.3323693744706 6.15287403321666 0.852415485111928 -25.5980723570979 -4.59618296375324 2.45804559137851 -14.0239673563297 -5.20185753331789 -1.08035494455882 -7.6599031246964 14.8763828414416 -31.7509463903145 35.8901585257784 -52.0491103468177 128.555787174502
0.00414999989420176 0.0600499968752265 0.00564999974519014 16 0.0870628714561463 0.269569316731261 -0.104387714441788 0.30190123390859 7.63359760932585 10.3629116257828 -0.30389652385941 -34.1930084986023 -3.14357084637259 2.17131579295703 -7.12673508994972 -9.76982274095024 -0.104182904864231 -11.9411385339073 6.82283856609031 -44.5559201243851 46.6301612019032 -318.156045538724 348.92216675347
0.006949999935925 0.0600499968752265 0.00564999974519014 16 0.117147712310155 0.173028855047499 -0.132840771572664 0.247607030939293 12.8818454696176 12.5121705380066 -0.519295998812753 -33.5712180487316 -1.23063048545196 1.08815042459052 -9.73743794086905 -11.3237043892762 -0.757463701281284 -12.4118548138667 9.2181419420563 -46.0833885867383 48.6076844173915 -260.800405744883 402.635922401961
0.00974999997764826 0.0600499968752265 0.00564999974519014 16 0.162452562650045 0.0827797441122433 -0.163547813039428 0.244931027631934 15.7856705577055 13.0597779621288 0.29383194860215 -30.2530829716281 0.413383393685907 -0.305458661700736 -10.6895460232197 -11.1735502760324 -3.21090238333082 -10.8680916143316 10.9833779718218 -43.3128609337569 45.9864537584317 -163.573995180989 349.33837182976
0.0125500000193715 0.0600499968752265 0.00564999974519014 16 0.207215801477432 0.00328308094277891 -0.196377522140586 0.285505338311717 13.0121235605198 12.579000305449 1.55912411869879 -27.0577539130052 1.3760444757833 -1.39078627918238 -8.14954410935534 -10.2935661105288 -6.02929312380388 -8.90277983134639 9.70866822805414 -39.6367542184542 41.7682895563369 -186.28081204809 269.904273141618
0.0153500000610948 0.0600499968752265 0.00564999974519014 16 0.236448564926783 -0.0689716961521966 -0.212662886028411 0.325408238709439 1.1978892559096 11.4276083346068 2.64573575800343 -25.7109829523803 1.74399670771923 -1.82945397613872 7.15032119737547 -8.67881205945339 -7.57044450165733 -6.84935808331467 -4.50458543937204 -37.1385912869871 38.032617040061 -236.526544611466 238.837425874782
0.018150000102818 0.0600499968752265 0.00564999974519014 16 0.212547898093859 -0.140885759377852 -0.152906526778243 0.297331148908043 -13.3337961129341 9.41357030919266 2.91035593186286 -24.1064689078546 2.0173495851086 -1.62129935959698 23.1519550626504 -6.17676691668799 -7.30605605922659 -4.55546755709101 -20.2415991307875 -33.5200392170473 39.4216647181166 -67.2151209964446 205.312786640427
0.0209500001445413 0.0600499968752265 0.00564999974519014 16 0.156616020600001 -0.202092992874095 -0.0765891273932842 0.266900824487774 -27.9719060701439 6.1025188651684 2.0872234868873 -23.078481471305 2.8087877753051 -0.891879873197885 38.8505852879736 -3.46012347652285 -6.32295698779548 -2.56824360332496 -36.7633618010863 -29.1810003364734 47.0071422951965 -14.9206474434355 137.199166813484
0.0237500001862645 0.0600499968752265 0.00564999974519014 16 0.0455346838633219 -0.26618981632016 0.0713328522598992 0.27931845903668 -37.7403109766725 1.34509300789642 0.646729379243327 -23.6722466786188 4.06615009098159 0.151762388194217 44.2696833681424 -0.862476688170413 -5.84106884463291 -1.01423907636463 -43.6229539888991 -25.0173396865153 50.2976945854591 12.8772547092516 46.5770832736859
0.0265500002279878 0.0600499968752265 0.00564999974519014 16 -0.0675769883394242 -0.329654693601042 0.1752474138589 0.379408121197288 -41.51824053263 -4.17007452374538 -0.411017611411345 -23.876734354577 5.47954801527201 1.4388070893841 43.5631853549151 2.35779006753658 -6.10197752912265 0.918982978152485 -43.9742029663265 -19.7066598308316 48.1967581682204 52.680899459249 -92.648830904941
0.029350000269711 0.0600499968752265 0.00564999974519014 16 -0.19850620230039 -0.394341564032948 0.321808888467106 0.546324941927521 -36.6611964938371 -9.27224283791931 -0.31626894598799 -22.3986009463079 6.58088111606491 2.78850324443275 34.9108950408165 6.95771527787672 -6.45022316897827 4.16921203344398 -35.2271639868045 -13.1263581083886 37.8237582575118 117.872488741979 -263.283875370716
0.0321500003114343 0.0600499968752265 0.00564999974519014 16 -0.279559799830119 -0.451063635266231 0.380016377305534 0.652705547518225 -22.3610988900895 -12.6619950415346 0.728037138338526 -15.0295223532485 7.16957785633532 3.86164436106885 19.1336460469564 11.6498448015508 -6.76529759949927 7.7882004404819 -18.4056089086179 -2.3675273117139 20.1252997734152 178.679753795479 -306.765778576021
0.0349500003531575 0.0600499968752265 0.00564999974519014 16 -0.325067841609319 -0.476029704525135 0.436093617606287 0.722807736923013 -15.9912403911554 -14.010860534568 1.45264735655887 -9.21268809601724 7.39358226818069 4.39815735183403 17.9139196410446 14.4401154301107 -6.62445513225048 10.0419580782766 -16.4612722844858 4.79817243855072 19.8705024098515 166.275591965682 -279.887946838403
-0.0350500006899238 0.0572499968335032 0.00564999974519014 16 0.147946388721466 -0.108303200951292 -0.284717785020281 0.338647212270933 1.86662287995993 24.177746173598 -2.03573250149661 -5.9478171555234 1.09970884870993 -1.92355608656751 -10.4396874650245 -23.4730580766077 -12.6750822788668 -21.5495019900401 8.40395496352786 -30.1255633291214 37.9810092144041 -71.5739019258911 41.8549016325805
-0.0322500006482005 0.0572499968335032 0.00564999974519014 16 0.153049814303716 -0.12416013055156 -0.312482693637721 0.369439328577871 -0.545457698082208 22.4926464308025 -1.35301818740271 -11.0803049171636 1.462387429021 -1.81001908678888 -10.5935568951081 -20.1122858889334 -13.0367405548822 -18.3022668021445 9.24053870770543 -33.5729513479661 39.3383221289163 -206.154783793409 185.737038870907
-0.0294500006064773 0.0572499968335032 0.00564999974519014 16 0.143735780318578 -0.168350021703518 -0.339609338000106 0.405384023869017 -10.2717994438222 17.7660029720318 -0.286991277956661 -19.9607691205684 2.60775062756154 -1.58227340257449 -1.01229806903471 -12.0787415654841 -13.5302879977922 -10.4964681629096 0.725306791078045 -37.7267720926002 39.1664556267625 -279.024128954823 412.131187555248
-0.026650000564754 0.0572499968335032 0.00564999974519014 16 0.0907485787073772 -0.233395518214274 -0.308683949086505 0.39748528637367 -27.7241999853167 9.09065437512945 0.231428369979092 -23.8702736627806 4.72634451956598 -1.08722910864998 23.1920101915762 0.693671215425872 -12.947259023897 1.78090032407586 -22.9605818215971 -32.9609280379101 40.2092365094245 -5.29401099732126 379.108369179429
-0.0238500005230308 0.0572499968335032 0.00564999974519014 16 -0.0224142773946125 -0.299563933606065 -0.192976776267654 0.357044795967282 -41.4308188429565 -2.95186000542811 -0.188652148231346 -20.0202253039329 7.33418418404268 -0.0312584962869452 45.3954277962776 15.3378539760725 -10.4273293956234 15.3691124723594 -45.5840799445089 -17.0683652985048 51.0435799737696 69.2120543491629 1.6220654316437
-0.0210500004813075 0.0572499968335032 0.00564999974519014 16 -0.157095399300257 -0.343396864388633 -0.0323977966591095 0.379011857573899 -40.4895567111453 -16.0452417767118 -1.00557413227708 -2.61694548590385 8.80671737926316 1.62478968633423 51.9491006944611 27.3325139184418 -6.41182151793234 25.7077242321076 -52.9546748267382 13.428296290808 60.3771795670632 107.277788529649 -187.595809690015
-0.0182500004395843 0.0572499968335032 0.00564999974519014 16 -0.265321941375732 -0.313659449052842 0.118525100129967 0.427581783892086 -23.2551763242019 -27.2957405768141 -1.37191866032402 23.5296866157099 7.37230202889741 3.26943979357608 42.5691814485419 33.405819933403 -2.18601388449494 30.1363801398269 -43.9411001088659 50.825427192524 73.6358997772968 -221.192523579052 454.719359210764
-0.015450000397861 0.0572499968335032 0.00564999974519014 16 -0.298873176177343 -0.214539385329311 0.219044957657655 0.428174049623579 -0.367508361937283 -34.3820167164795 -0.94088772240235 50.0974376775936 2.66883480979471 3.80478143409491 23.2122536890205 33.8858963177105 1.05617993466468 30.0811148836156 -24.1531414114229 84.4794543940731 92.8710176933674 -1576.86831299412 1616.81243070992
-0.0126500003561378 0.0572499968335032 0.00564999974519014 16 -0.272078241109848 -0.0408119805093156 0.252493413248255 0.373423500562398 17.9373090276523 -36.1658075195347 0.00865744147852954 65.2916373092285 -3.42478097817942 2.81882182905579 0.399721147860011 31.7505057351267 2.7511090679776 28.9316839060709 -0.391063706381482 101.457444828763 105.502646296881 -2124.09382623822 2250.3165011072
-0.0098500003144145 0.0572499968335032 0.00564999974519014 16 -0.195685521761576 0.142641948065721 0.218472814777245 0.326144016611951 26.5296330004063 -32.4258716350439 1.05580861570439 62.6924838388028 -7.91597126868084 1.16033071679508 -18.3251152536347 28.5517486853465 2.83298628128424 27.3914179685514 19.3809238693391 95.1183554738467 100.863330980124 -1524.82960605958 1861.80121272041
-0.00705000027269125 0.0572499968335032 0.00564999974519014 16 -0.113677730560303 0.307030989668565 0.141564101315259 0.356694617037314 27.6217125852505 -23.7943110841982 1.94476201361133 46.0295331605209 -9.28443051031246 0.197711170249336 -29.493491197973 22.7043108591178 1.37320506712072 22.5065996888685 31.4382532115843 69.8238442447191 79.8140339768731 -412.694260042199 916.838934131733
-0.004250000230968 0.0572499968335032 0.00564999974519014 16 -0.0269935377438864 0.404721083596038 0.0393458623578772 0.407524113975808 21.9124150700791 -12.3145084116634 2.35191856864641 19.8930355381035 -8.31041297845224 0.5941135272173 -26.8981719363741 12.6925792177611 -0.534643569561683 12.0984656905438 29.2500905050205 32.2075439497668 45.1582390477454 -0.549303642983972 111.320988959675
-0.00145000018924474 0.0572499968335032 0.00564999974519014 16 0.0220555464426677 0.42630980592221 -0.0244290070303638 0.427578383619667 12.4698330519692 -0.911208595215761 1.84170616973309 -6.1742577927117 -6.7500494056845 1.74029418562818 -17.6164167946646 0.216571448148389 -1.24804752327179 -1.5237227374798 19.4581229643977 -5.26304919749594 20.2148452166618 47.3929024012032 -64.8692222972852
0.0013499998524785 0.0572499968335032 0.00564999974519014 16 0.050425819158554 0.375634450543245 -0.0700312995827699 0.385419753767225 5.686447507274 8.15109929548386 0.629071163485101 -26.4466918078235 -5.36575073048826 2.56361250155694 -8.50974707697728 -10.6519401252812 -0.5044793674099 -13.2155526268382 9.13881824046238 -34.5977911033073 38.1467689233706 -215.926159869316 217.556449555192
0.00414999989420176 0.0572499968335032 0.00564999974519014 16 0.0570292528470357 0.279624499615359 -0.0760557813321551 0.295341629878817 4.92664159636212 14.1006313114555 -0.454750668044761 -35.4110936783089 -3.78325013918294 2.42916370421674 -4.89933888456066 -16.8709015408119 0.412452546544107 -19.3000652450287 4.4445882165159 -49.5117249897644 53.3259579786319 -524.753408385583 519.905857555937
0.006949999935925 0.0572499968335032 0.00564999974519014 16 0.0804200506210326 0.176102887477415 -0.0992778111320028 0.217567679821554 11.3836860982737 17.5893270583551 -0.590682216056531 -35.1516724066587 -1.62235738852281 1.41160079971343 -9.2664622972549 -19.0513128403731 -0.394911960021427 -20.4629136400866 8.67578008119836 -52.7409994650138 57.2329714345459 -582.836779876834 617.390303861851
0.00974999997764826 0.0572499968335032 0.00564999974519014 16 0.125283243656158 0.0814629066889756 -0.132553071654014 0.199755883798548 15.2745390015708 19.4160821777929 0.293417536671829 -31.4180327785021 0.575042149898938 0.0584672683893551 -11.1993027704971 -19.0625831077912 -3.04873127586521 -19.1210503761805 11.4927203071689 -50.834114956295 55.5140021160163 -474.273415586705 574.878105266436
0.0125500000193715 0.0572499968335032 0.00564999974519014 16 0.171971808671951 -0.000521521267558759 -0.168038671837809 0.240440367233436 13.0664223661535 20.0331741471872 1.59368972092337 -27.793830683804 2.15518170020583 -0.996946437548411 -9.00539419949893 -17.990304325538 -6.01820664056468 -16.9933578879896 10.5990839204223 -47.8270048309912 51.8511059030095 -471.254563725526 489.768840365412
0.0153500000610948 0.0572499968335032 0.00564999974519014 16 0.203577523628871 -0.073895999333666 -0.186551259541496 0.285842262936927 2.1574243256455 19.4031375954317 2.65566727535427 -25.936163240707 2.9937880153526 -1.3967675705663 5.08223980081286 -15.6046241891903 -7.53022965916364 -14.207856618624 -2.42657252545859 -45.3393008361387 47.5752419250452 -442.643904276353 435.619232253473
0.018150000102818 0.0572499968335032 0.00564999974519014 16 0.18591960032781 -0.144749924902474 -0.136800169557622 0.272457198356583 -11.2248305036992 17.0059829249323 2.88994406434125 -24.5675285555498 3.58891032557798 -1.1706237124959 20.3965408618803 -11.615143639446 -7.04668547408012 -10.4445199269502 -17.506596797539 -41.5735114804821 46.3025462016274 -244.630728242252 358.776164061014
0.0209500001445413 0.0572499968335032 0.00564999974519014 16 0.137711135149002 -0.209689193596908 -0.0648398704629835 0.259110253477173 -24.0253854362976 12.0541804965258 2.07832904894798 -23.8708626766424 4.57853844854503 -0.533171596150076 35.4223071928086 -6.33699915689927 -5.61195551768153 -5.80382756074919 -33.3439781438606 -35.9250431731682 49.3570057824334 -52.0388798671188 209.879458630395
0.0237500001862645 0.0572499968335032 0.00564999974519014 16 0.0423226153850556 -0.276643703123555 0.0735155691935991 0.289357013332671 -32.2259255096001 4.17908301469773 0.66042124152265 -24.5443267157951 5.82387891916655 0.304643574234438 40.3958544882369 0.099225555387162 -4.55592396930864 -0.205418018847276 -39.7354332467143 -28.7234097304929 49.0304101391404 7.32870085738397 8.4700987580009
0.0265500002279878 0.0572499968335032 0.00564999974519014 16 -0.0563782306512197 -0.345787351157827 0.174510231720027 0.391409271846089 -35.2879056504468 -5.72724815734401 -0.458851086145453 -24.5751527127317 6.92324467306744 1.30081294203623 38.5238178094574 7.93899972884811 -4.34288240879046 6.63818678681188 -38.9826688956028 -18.8479045553877 43.8059071835045 104.684130137664 -254.520873668405
0.029350000269711 0.0572499968335032 0.00564999974519014 16 -0.170510680278142 -0.41352664107612 0.302210351317384 0.53982337056855 -31.2386344484313 -15.6794223135417 -0.564515240770843 -22.5286807788157 7.38463183013234 2.38605928719534 29.2550160768694 17.1009378348063 -4.45597323151858 14.7148785476109 -29.8195313176403 -6.84925846527394 33.9506176703576 252.68599959562 -501.918666340162
0.0321500003114343 0.0572499968335032 0.00564999974519014 16 -0.243850916226705 -0.472092081926918 0.349789669357512 0.636150152048974 -19.2031598730222 -23.1300059748097 0.183022507355715 -14.913999558457 7.20295662109183 3.30703920101062 14.9363738959205 25.3900457752313 -4.70119814239933 22.0830065742207 -14.7533513885648 8.21600641635266 27.7996999621414 336.969305349822 -513.564662507679
0.0349500003531575 0.0572499968335032 0.00564999974519014 16 -0.285827442010244 -0.497801046109137 0.393242998637919 0.695804041445013 -13.8319307325824 -26.5580930470569 0.724335417947815 -8.97262079013949 6.93274325372596 3.78065204786313 14.1720985984803 29.904501397602 -4.60308673240593 26.1238493497389 -13.4477631805325 17.5854722569174 34.2424688640634 276.982104896445 -425.75523135519
-0.0350500006899238 0.05444999679178 0.00564999974519014 16 0.0518111050128938 -0.110949522379475 -0.18135929061876 0.2188272821488 3.67202035459797 38.452017002365 -1.54274198337378 -6.39212110626272 1.70137783752028 -2.01994248446688 -14.1084545903662 -37.4233755055509 -11.0736711266774 -35.403433021084 12.5657126069924 -44.8441381086277 58.5004010730318 -59.8728076967335 95.1754277843259
-0.0322500006482005 0.05444999679178 0.00564999974519014 16 0.0626372853914896 -0.128811034632176 -0.224532771129937 0.266328138722733 3.22930808614965 35.7605518027159 -0.946876800568044 -11.9090535435843 2.31554920054301 -1.96428707519219 -16.3194378017031 -33.8353444115162 -11.5264091275204 -31.871057336324 15.3725610011351 -47.6696053463002 59.3672569800971 -279.520675938473 287.524827518758
-0.0294500006064773 0.05444999679178 0.00564999974519014 16 0.0700974003473918 -0.178122934794325 -0.278373822335464 0.337836366303071 -1.81278545250838 28.2534154859409 -0.0836533437479604 -21.6318825090449 3.6700480168997 -1.81928290880856 -12.9351813794613 -24.2201245179439 -11.9309820260942 -22.4008416091354 12.8515280357133 -49.8852979949859 56.1738589888467 -547.922518439268 537.217258583483
-0.026650000564754 0.05444999679178 0.00564999974519014 16 0.0500310055414837 -0.251381384381481 -0.300648671106125 0.395076353844318 -13.8199446053125 14.5654947115253 0.234719078505976 -26.05348517797 5.40577902856116 -1.35316937035383 5.83067354195287 -7.708317338804 -11.1835970917461 -6.35514796845017 -5.5959544634469 -40.6189798894953 41.49221781637 -178.475476748426 387.075742286203
-0.0238500005230308 0.05444999679178 0.00564999974519014 16 -0.0140904478232067 -0.325971892153223 -0.242771575921603 0.406686922914015 -24.149420160525 -4.57764497035277 -0.353264705823604 -21.7359808589211 6.69690643426194 -0.202744669464473 27.5264630620898 12.8778012843605 -8.46002469512909 13.0805459538249 -27.8797277679134 -17.1583358885683 35.2532040150682 93.6657921553025 -101.242280154154
-0.0210500004813075 0.05444999679178 0.00564999974519014 16 -0.0953379480044048 -0.374464326127393 -0.135230215851528 0.409389871822673 -23.5903263656888 -25.6648922269571 -1.34658516994666 -2.09895557310139 6.42213888122714 1.66770258668328 38.8060465444823 31.8951602261577 -4.28797557508809 30.2274576394744 -40.1526317144289 23.5659366538557 55.5093361455019 63.2212800257959 -132.689046575622
-0.0182500004395843 0.05444999679178 0.00564999974519014 16 -0.155734294652939 -0.335062934239007 -0.00894671655260026 0.369594891968185 -10.8299227088961 -43.738877387617 -1.88955237845536 26.8799072291582 3.98834370534213 3.55256071279809 36.9474133775589 44.5866764321583 -0.249700677362116 41.0341157193603 -38.8369657560143 70.6187846167751 90.4384945847406 -1031.60814548757 1045.62905715093
-0.015450000397861 0.05444999679178 0.00564999974519014 16 -0.160355378389359 -0.216180520510146 0.0899647795664108 0.283798390391603 5.20704536966768 -54.6524085948624 -1.61200828576926 55.4302473735493 0.00878061504080911 4.18582340964693 22.9600519741309 49.9805698337234 2.40969736060129 45.7947464240765 -24.5720602599002 110.082655968412 121.733874047125 -2843.23036761834 2869.81276592961
-0.0126500003561378 0.05444999679178 0.00564999974519014 16 -0.12471125125885 -0.0134133165047206 0.134392479138696 0.183831857139204 16.1029906820474 -56.6088531778072 -0.743057230679616 69.7242401908494 -3.66301617456167 3.0698398309484 2.75070905374529 50.0171742253116 3.29678772737664 46.9473343943632 -3.49376628442491 126.333093368657 134.819542684583 -3762.51993416754 3777.53493643949
-0.0098500003144145 0.05444999679178 0.00564999974519014 16 -0.0642569351196289 0.184336172418358 0.111823157498923 0.224973768972847 17.8345426329128 -49.8193803491997 0.346960831762658 64.3237826691442 -5.2357275960225 1.13455404992961 -12.9663455572278 45.5061736727995 2.64615252320847 44.3716196228699 13.3133063889904 114.143163018344 123.185820688893 -3147.52204896468 3097.40217386926
-0.00705000027269125 0.05444999679178 0.00564999974519014 16 -0.0182423861821492 0.350657806814173 0.0574293707749651 0.355797435011767 13.9373243261776 -36.0714622734789 1.33015577961059 45.0371595097959 -4.50619353400715 -0.0368788486427798 -18.4550050498081 34.9563556544563 1.03526068563742 34.9932345030991 19.7851608294187 81.1086217832748 90.5239613451442 -1627.78459271706 1597.35278011154
-0.004250000230968 0.05444999679178 0.00564999974519014 16 0.0189781602223713 0.434976096537818 -0.00245596790123576 0.435396838416444 6.73152421223595 -18.6859858290976 1.83325490533002 18.187121876523 -2.78192375356185 0.362469973034729 -11.1706896852556 18.2021188965296 -0.465959194814884 17.8396489234948 13.0039445905856 36.8731077056206 42.976525225975 -334.905966025128 333.158362019333
-0.00145000018924474 0.05444999679178 0.00564999974519014 16 0.0236030451456706 0.449060504303973 -0.0153312504035421 0.449941648999983 -0.588150420110018 -1.85041131562279 1.4328096824111 -7.27446631662758 -1.53616514083321 1.6795925811216 -1.84365541188748 -0.822116967753376 -0.649348756061761 -2.50170954887498 3.27646509429858 -5.42405500100479 6.81279288067782 6.65190372694126 -7.15540806244924
0.0013499998524785 0.05444999679178 0.00564999974519014 16 0.0177628739674887 0.391980314569373 -0.0164407409368626 0.392726857579212 -3.39253750260627 11.2242492756371 0.360545173591493 -27.3302618462172 -0.936685253719881 2.73785269465859 1.8499935139087 -16.0861073679868 0.343946330852732 -18.8239600626454 -1.48944834031721 -38.5545111218543 42.9302953244411 -344.443005361392 351.824777470671
0.00414999989420176 0.05444999679178 0.00564999974519014 16 0.00548000931739812 0.294243795244644 -0.00439334595275188 0.294327611736907 -0.529922022614911 19.8102658885228 -0.544622692013718 -36.809743150466 -0.236966334474448 2.81168859954783 -0.628134694615072 -24.4980907332877 1.1159683526865 -27.3097793328356 0.0835120026013534 -56.6200090389888 62.8622020377741 -797.028338539929 797.019455658809
0.006949999935925 0.05444999679178 0.00564999974519014 16 0.0155433519681294 0.182350916981231 -0.0205400568138187 0.184161197455425 8.00642764298571 25.1553922158882 -0.534323923133101 -37.2628458124871 1.11196379285083 1.9502770229177 -7.99704188821113 -27.8583040327159 0.150052303645329 -29.8085810556336 7.46271796507802 -62.4182380283753 69.5721215900701 -1002.45403444495 997.69099424014
0.00974999997764826 0.05444999679178 0.00564999974519014 16 0.0525251452128093 0.0798965743308266 -0.0557314938636652 0.110672276915693 13.30420507605 28.6762294772592 0.420102665947904 -32.97692420992 2.58462909167536 0.733776049413362 -11.0181135022556 -29.2976434425831 -2.56348115859256 -30.0314194919965 11.4382161682035 -61.6531536871793 69.5257528214529 -950.320962675795 965.436202476494
0.0125500000193715 0.05444999679178 0.00564999974519014 16 0.0937757456302644 -0.00856272477501382 -0.094052271071317 0.133090346824092 12.2177956490476 30.8780981504916 1.6899549106125 -28.7687579308851 3.53830821986756 -0.235392874287095 -9.48461321141806 -30.0718924811586 -5.49208858071785 -29.8364996068715 11.1745681220306 -59.6468560813768 67.6227411592966 -853.673214541491 853.970799161724
0.0153500000610948 0.05444999679178 0.00564999974519014 16 0.124791526397069 -0.085832546238477 -0.1209787438416 0.193845318529446 3.26785518988851 31.24633055511 2.62702766084418 -26.2112605143765 3.94972642547151 -0.596815952661196 2.15096745860752 -29.0470812633819 -6.83297455886408 -28.4502653107207 0.476060202236658 -57.4575910694865 64.1172285822999 -779.792232196761 759.608880254578
0.018150000102818 0.05444999679178 0.00564999974519014 16 0.114570158322652 -0.157261248490928 -0.0880997761730881 0.213586029544892 -7.50359836132595 28.8118222189931 2.71910105638481 -25.3593207606651 4.42149359403094 -0.410608468281915 15.5209196444805 -25.229668253521 -5.95649318848958 -24.8190597852391 -12.8018185880957 -54.1711429796582 60.9457547291717 -616.375684837573 663.267200878314
0.0209500001445413 0.05444999679178 0.00564999974519014 16 0.0827233870824178 -0.227706321113122 -0.0344301535010648 0.244701374976453 -16.2236779639428 22.2406850326716 1.84920726338075 -25.1012872122215 5.45408221175825 0.0102549332841011 27.9985901599409 -18.2084744858004 -3.79790811346361 -18.2187294190845 -26.1493828965602 -47.3419722448931 57.0699103166717 -251.966344985844 459.098014898029
0.0237500001862645 0.05444999679178 0.00564999974519014 16 0.0206858364741007 -0.297088869673316 0.072751756211704 0.306565683575786 -20.6355338354341 10.7236833679789 0.444576643168842 -25.5500765705975 6.4449161315182 0.434354100819138 30.3411978536124 -7.16632553059469 -1.87983908996706 -7.60067963141383 -29.8966212104436 -36.2737599385765 47.6168452413808 -22.8665890952764 157.296459133364