TITLE="DynamicStudio Exported Data"
VARIABLES= "X (m)[m]" "Y (m)[m]" "Z (m)[m]" "Status[-]" "U[m/s]" "V[m/s]" "W[m/s]" "Length[m/s]" "dU/dX[1/s]" "dU/dY[1/s]" "dU/dZ[1/s]" "dV/dX[1/s]" "dV/dY[1/s]" "dV/dZ[1/s]" "dW/dX[1/s]" "dW/dY[1/s]" "dW/dZ[1/s]" "Vorticity X[1/s]" "Vorticity Y[1/s]" "Vorticity Z[1/s]" "Vorticity Magnitude[1/s]" "Lambda-2[1/s²]" "Q-Criterion[1/s²]"
ZONE T="DynamicStudio Data" I=26 J=26 F=POINT
-0.0350500006899238 0.0600499968752265 0.00564999974519014 16 0.233120550115903 -0.00263664283595669 -0.47907120533986 0.53278641363831 0.827435734695745 14.1636883473793 -2.78342172849852 -5.87690339223339 -0.426449503164542 1.11613718447629 3.89190257320551 -16.5649075070655 -8.34975900511911 -17.6810446915418 -6.67532430170403 -20.0405917396127 27.546408353741 -110.282362232815 108.859145553138
-0.0322500006482005 0.0600499968752265 0.00564999974519014 16 0.235722094972928 -0.0190321264012406 -0.466827310839047 0.523311442679209 0.558970931216079 14.1130983086509 -2.48278825140765 -10.6429211481518 -0.902324724011305 1.19413623491532 5.63151877968686 -17.3977963024998 -6.29541055315388 -18.5919325374151 -8.11430703109452 -24.7560194568027 32.0056625211268 -189.400735280401 186.618979890753
-0.0294500006064773 0.0600499968752265 0.00564999974519014 16 0.236968921820323 -0.0637967549072346 -0.444248275008673 0.507524211928418 -0.764649322383089 13.6893717808784 -1.8870179334136 -17.7537263485148 -1.87900142416216 1.10927466227811 15.4334646989665 -18.4204385092409 -2.10158189854455 -19.5297131715191 -17.3204826323801 -31.4430981293932 40.8665784615624 -297.066488671646 299.586536569559
-0.026650000564754 0.0600499968752265 0.00564999974519014 16 0.231331849892934 -0.121048835704957 -0.372219867669046 0.454659075888709 -6.48661181520141 12.4392880017617 -1.3447971488932 -22.2394975415956 -2.52261198432878 0.692654729985888 29.6666263319633 -18.1245796486446 2.73977617228498 -18.8172343786305 -31.0114234808565 -34.6787855433574 50.1838107633478 -337.318920011967 320.773133271504
-0.0238500005230308 0.0600499968752265 0.00564999974519014 16 0.198155163129171 -0.189944424575272 -0.267206510292211 0.383071367038207 -17.5037752534809 9.80930673272211 -1.10520494134936 -23.8426293593633 -2.10685197524265 -0.0844912612904819 44.9206752877626 -15.0176928632204 5.97196266869434 -14.9332016019299 -46.025880229112 -33.6519360920855 58.939248075406 79.5107699711156 202.021282933081
-0.0210500004813075 0.0600499968752265 0.00564999974519014 16 0.127049333651861 -0.254536462380662 -0.107751863665568 0.304205207033094 -30.0813358544852 5.40424668352102 -1.1192710223382 -19.9941736443045 -0.467345042457272 -1.02839251074995 55.2043713554923 -8.29556670732721 6.52923978817097 -7.26717419657726 -56.3236423778305 -25.3984203278256 62.2112872930471 22.0274019942716 -24.0902985090351
-0.0182500004395843 0.0600499968752265 0.00564999974519014 16 0.0197502378622691 -0.299535893743159 0.0566058375216865 0.305476749324169 -38.1554988947976 -0.553981443033145 -1.09733010352323 -10.6099499002146 1.75338335041028 -1.89200936517225 54.4881140085934 1.17778070187146 4.98314297805798 3.06979006704371 -55.5854441121167 -10.0559684571815 56.5710854572262 2.19132946980739 -192.15605840254
-0.015450000397861 0.0600499968752265 0.00564999974519014 16 -0.0984519044558207 -0.311399870293293 0.212815793796132 0.389811773550691 -38.4354420546897 -7.01863685482691 -1.18362257296882 3.3288602585384 3.43915447657168 -2.51688223251545 44.7983966933749 11.0943591197451 3.28370715559272 13.6112413522605 -45.9820192663437 10.3474971133653 49.0579522959427 -2.74958874950403 -142.791332336975
-0.0126500003561378 0.0600499968752265 0.00564999974519014 16 -0.207753753662109 -0.279508328149071 0.322988821716281 0.474982427695022 -31.0173944930008 -12.3160995599972 -1.78122958914216 20.7694214967945 3.58293531430678 -2.90468091438292 32.2382426694609 18.7309236377152 3.59047232551655 21.6356045520981 -34.019472258603 33.0855210567917 52.1543438333572 -19.6496367730536 157.99334656872
-0.0098500003144145 0.0600499968752265 0.00564999974519014 16 -0.281634085178375 -0.197192693380639 0.407262966953761 0.532978273955845 -18.946452188044 -15.0753879358491 -3.00879530737465 40.1638758778991 1.59553883369502 -3.15141780753257 19.2142630331934 22.6978009052065 6.20205218121889 25.8492187127391 -22.2230583405681 55.2392638137482 64.9108827297256 -508.959136221432 596.986978037801
-0.00705000027269125 0.0600499968752265 0.00564999974519014 16 -0.319278699556987 -0.0605195071435689 0.440671591252515 0.547533515022345 -2.76474352531518 -14.8517295160797 -4.18779235893041 57.0514192181307 -2.3261577446222 -3.13636486701946 2.82186611144731 22.7650202038376 9.08985948628844 25.9013850708571 -7.00965847037772 71.9031487342104 76.7468556903417 -895.555057601871 890.684698000906
-0.004250000230968 0.0600499968752265 0.00564999974519014 16 -0.295514516830444 0.113824588921222 0.423363970390831 0.528698324307638 14.9401942949055 -12.1483471858724 -4.338828385977 60.7745419322152 -7.08366265493572 -2.71948152711961 -18.0006210999497 19.8078935859348 9.78157154571558 22.5273751130544 13.6617927139727 72.9228891180876 77.5362816168838 -501.893643425166 685.093760312569
-0.00145000018924474 0.0600499968752265 0.00564999974519014 16 -0.227912345727285 0.271892882372097 0.330850795329316 0.485110323111724 30.0576442384771 -7.99966805653461 -3.44368995963759 46.8841746849282 -10.822331564808 -1.80112576487458 -40.7745789137283 14.7857366461805 6.96839172909766 16.5868624110551 37.3308889540907 54.8838427414628 68.4175084961119 31.7333614372689 70.0191995324024
0.0013499998524785 0.0600499968752265 0.00564999974519014 16 -0.116303222179413 0.373301367310535 0.174965980122797 0.428361348076084 37.1787929561094 -3.19015744399932 -2.22499711405313 20.4168197520099 -12.0770704597289 -0.641554659078787 -49.8959343324855 8.52401355999195 2.02512394694793 9.16556821907074 47.6709372184324 23.6069771960092 53.9797672132352 85.6953400728147 -438.593622566178
0.00414999989420176 0.0600499968752265 0.00564999974519014 16 -0.00833686590194693 0.388588705883788 0.0298466506340386 0.389822406010192 32.9709806193502 1.65161841586187 -1.45750183155077 -6.13886296836034 -10.7919327566025 0.165905131737633 -42.4672603645545 1.95076713388897 -2.20912666907127 1.78486200215134 41.0097585330037 -7.7904813842222 41.7813071540361 116.687406324417 -456.897624801098
0.006949999935925 0.0600499968752265 0.00564999974519014 16 0.0777656122048695 0.34425344916371 -0.0819320570398122 0.362313109993945 21.7428042846547 5.87189389837893 -1.17019999743393 -23.3971807551774 -8.13899719392666 0.195331842922261 -19.5319736346423 -4.08917992747184 -3.37782487540804 -4.2845117703941 18.3617736372084 -29.2690746535564 34.8165262955709 13.907075505391 -107.587706582484
0.00974999997764826 0.0600499968752265 0.00564999974519014 16 0.120882614453634 0.262229086303463 -0.0880675903374019 0.301881766008699 9.54476631949497 8.99034895442971 -0.973125071443527 -31.2299517097501 -5.24267399946759 -0.5790093678385 0.595051736242443 -8.22898684877413 -1.04258566676105 -7.64997748093563 -1.56817680768597 -40.2203006641798 40.9713792723165 -191.00029305579 222.057164986572
0.0125500000193715 0.0600499968752265 0.00564999974519014 16 0.136289373636246 0.172652425600532 -0.076926215380275 0.23302638486798 1.97336479998092 11.1321224103552 -0.770179241772356 -31.2859422253958 -2.49964193616298 -1.65468447488479 6.4712951283117 -10.309765136012 2.33689252416209 -8.6550806611272 -7.24147437008406 -42.418064635751 43.8935254877749 -328.142339284211 330.041028926785
0.0153500000610948 0.0600499968752265 0.00564999974519014 16 0.135671773354213 0.0901015598039764 -0.0481431289960165 0.169831922893529 -1.12417758043564 12.6845957683832 -0.865062916444634 -29.3738985551543 0.0280106121151579 -2.35278860834661 -3.40016436233576 -10.545086677994 4.06550489404258 -8.19229806964744 2.53510144589112 -42.0584943235375 42.9238562080103 -339.159131777453 340.356352327394
0.018150000102818 0.0600499968752265 0.00564999974519014 16 0.131660699645678 0.0121337899472564 -0.0933475689630723 0.161850354713819 -2.2700885514539 13.619898411477 -1.56256103599796 -27.1180820898138 2.26793877257856 -2.16955409429098 -17.4361433985305 -9.30058221895487 3.38475482729056 -7.13102812466388 15.8735823625325 -40.7379805012908 44.2990432679804 -314.158375455714 316.766670334862
0.0209500001445413 0.0600499968752265 0.00564999974519014 16 0.122107434670131 -0.0564995583018754 -0.145837371559658 0.198421179901383 -3.03568360085334 13.5668651854915 -2.47833967536797 -27.2441644950399 3.95854439251421 -1.06640938846493 -23.5068957140602 -7.33267494170026 1.81697398880288 -6.26626555323533 21.0285560386922 -40.8110296805314 46.3358003776918 -300.827409177839 293.200126860406
0.0237500001862645 0.0600499968752265 0.00564999974519014 16 0.111841394106547 -0.135159897530296 -0.223415131776904 0.28406164197756 -4.62227966943031 12.2813282330538 -2.89016051848727 -28.8003053105812 5.00424358847931 0.363250663182009 -16.4133359555683 -5.46519618357538 1.10811285332266 -5.82844684675739 13.5231754370811 -41.081633543635 43.6411237385229 -305.635306388934 285.546309042361
0.0265500002279878 0.0600499968752265 0.00564999974519014 16 0.0925787848234176 -0.21371147036305 -0.235050762250891 0.330896184321975 -5.80235028261827 9.9645955629364 -2.33293387459981 -29.4213108884706 5.58532807520753 1.37611222854298 -3.95155631780723 -4.91282879795479 1.22487093381887 -6.28894102649777 1.61862244320742 -39.385906451407 39.9176695818707 -267.561386984534 258.039493999882
0.029350000269711 0.0600499968752265 0.00564999974519014 16 0.076229844490687 -0.297872996184742 -0.245900006143299 0.393708171198445 -6.08453217243576 7.1745765346387 -1.05981204321268 -26.5383504248438 5.97609443670374 1.6408832363984 4.92326829078739 -5.83380806401316 1.20240652688623 -7.47469130041156 -5.98308033400007 -33.7129269594825 35.0461082646126 -166.080244404872 168.699638002409
0.0321500003114343 0.0600499968752265 0.00564999974519014 16 0.0559205325444538 -0.36171889535229 -0.210973391199562 0.422465900409938 -4.38757633963812 4.75168970857428 0.193954693840818 -17.1314274928149 6.29600882502364 1.41907621168238 6.62780176136143 -7.33108241488863 0.689773191605816 -8.75015862657101 -6.43384706752061 -21.8831172013892 24.430114255323 -53.1353626283669 64.2132653217663
0.0349500003531575 0.0600499968752265 0.00564999974519014 16 0.0500985745588938 -0.393936555101536 -0.213333945345754 0.450785147109889 -2.07225041795855 3.60055197795038 0.844027176142918 -11.2940053894902 6.36668531665441 1.21802135250939 0.677961392635972 -8.54593119726113 0.0921331910302028 -9.76395254977052 0.166065783506946 -14.8945573674406 17.81039545913 -30.01967486738 37.7038559621315
-0.0350500006899238 0.0572499968335032 0.00564999974519014 16 0.193875224590301 -0.00203306277699691 -0.434308396478106 0.475621193078671 0.832294270056919 24.4067368082526 -2.68870492317649 -5.44591913987978 0.617035963923614 0.724704462506283 4.27645253199309 -27.7465141351222 -8.37740739890372 -28.4712185976285 -6.96515745516958 -29.8526559481324 41.8366439137608 -172.214730104049 152.895182386878
-0.0322500006482005 0.0572499968335032 0.00564999974519014 16 0.196099030574163 -0.017876527315481 -0.418807604755275 0.462789595628335 0.879233432693207 24.1017181412312 -2.31864801035637 -9.74994945811547 -0.260972069948288 0.837729830812071 6.12210026526708 -28.0876493418202 -6.28365946577637 -28.9253791726323 -8.44074827562346 -33.8516675993467 45.3195232873168 -288.55738433061 268.600991827811
-0.0294500006064773 0.0572499968335032 0.00564999974519014 16 0.198618664344152 -0.0581280322506791 -0.39120043630867 0.442567535329111 0.1176022005202 23.040446292775 -1.62129711072555 -16.7179876722385 -1.86412353621058 0.878868159761254 15.4005590741417 -28.2044444669953 -2.13794797045643 -29.0833126267565 -17.0218561848673 -39.7584339650135 52.1182859721451 -432.49813975587 438.461513936844
-0.026650000564754 0.0572499968335032 0.00564999974519014 16 0.19565656820933 -0.113442049772311 -0.319913702580767 0.391784849680193 -4.54714353560691 20.6354210833161 -1.03743741782916 -21.9209695868231 -3.00385331387049 0.621077986444147 28.0231284513656 -26.6266605817716 2.55976585702919 -27.2477385682157 -29.0605658691947 -42.5563906701392 58.2923848593377 -487.500039675193 492.288080994849
-0.0238500005230308 0.0572499968335032 0.00564999974519014 16 0.169720818201701 -0.182786066527284 -0.22148800244487 0.333575834668206 -13.9432148615466 16.0120528348005 -0.852767622606985 -24.5358367588996 -2.76776053880215 0.00836911236484403 40.1727289787525 -21.2708453206385 5.59096662500775 -21.2792144330033 -41.0254966013594 -40.5478895937 61.4819297743392 -266.311674825618 372.466109352121
-0.0210500004813075 0.0572499968335032 0.00564999974519014 16 0.110391888221105 -0.252397201512504 -0.0833784987016891 0.287824061471782 -24.6526099261039 8.49111986421863 -1.00158008895232 -21.7163959158312 -0.898833178667698 -0.775204937007573 47.3194826632467 -10.8787190380138 5.90726228929427 -10.1035141010062 -48.321062752199 -30.2075157800499 57.8748659807792 53.4607340374188 94.577043141066
-0.0182500004395843 0.0572499968335032 0.00564999974519014 16 0.0207729625701905 -0.304702718687089 0.0537584025443842 0.310105189562138 -31.5048723680143 -1.60215654876122 -1.17802262502164 -12.3859601276894 1.85915652271131 -1.52088465323349 44.9777201802764 3.3587810128159 4.15189242133685 4.87966566604939 -46.155742805298 -10.7838035789282 47.6492827915609 4.73254068375691 -143.409468544452
-0.015450000397861 0.0572499968335032 0.00564999974519014 16 -0.0789810319741566 -0.32139258731467 0.178132582803567 0.375848926629823 -32.0327432931267 -12.5005966998429 -1.46730050386892 2.52434040497551 3.87776289502856 -2.14153949108072 36.0416487084841 18.3203966867325 2.33367496649787 20.4619361778132 -37.5089492123531 15.0249371048185 45.291951141053 -8.64869791436784 -66.2464126624972
-0.0126500003561378 0.0572499968335032 0.00564999974519014 16 -0.171537960767746 -0.291356532269274 0.267325760879709 0.431018518523565 -26.6988454754326 -21.4560235772508 -2.22945170081905 21.9731945774431 3.43058272203117 -2.69361869921336 26.3966904295566 30.3731754055374 2.6502452131506 33.0667941047508 -28.6261421303756 43.4292181546938 61.6357515989092 -71.1730366502648 458.862080555418
-0.0098500003144145 0.0572499968335032 0.00564999974519014 16 -0.238798634211222 -0.20270046452526 0.340556240299096 0.4626994908432 -17.5142642161679 -26.2869977747446 -3.4970681593259 43.2691579224603 -0.216006909641316 -3.15106846226644 16.5782151112831 37.528483144855 5.33431169922309 40.6795516071214 -20.075283270609 69.5561556972049 83.0415661745698 -1244.3975225119 1222.85063529253
-0.00705000027269125 0.0572499968335032 0.00564999974519014 16 -0.275447478294373 -0.0555246929905843 0.374294021501361 0.468028118131901 -4.26323641657265 -26.295245661953 -4.58537109814032 61.0011812803334 -5.96381882363278 -3.21251739017047 3.94275798032276 39.0212327650128 8.33335778901724 42.2337501551833 -8.52812907846308 87.2964269422864 97.3503199513968 -1678.73552106074 1687.6759039152
-0.004250000230968 0.0572499968335032 0.00564999974519014 16 -0.262031222184499 0.134841064467716 0.368570851176046 0.471897177786564 11.3039149149669 -22.0616008341594 -4.61849595323319 63.9850509483927 -11.5382549319085 -2.64334301507676 -14.2560307167469 35.1414593855689 9.08036072712655 37.7848024006456 9.63753476351372 86.0466517825521 94.4700992471245 -1367.66294207677 1306.10682050465
-0.00145000018924474 0.0572499968335032 0.00564999974519014 16 -0.204330762227376 0.304219704680145 0.286463083171014 0.465147059678913 25.0405766241237 -14.79114688298 -3.59980133985067 48.1965469960729 -14.8149132892734 -1.44412998125137 -34.32958035101 26.6259227528993 6.35089000902065 28.0700527341506 30.7297790111594 62.987693879053 75.4963360619174 26.3490763555545 321.721921562343
0.0013499998524785 0.0572499968335032 0.00564999974519014 16 -0.108313986063004 0.410270381796678 0.153908372529695 0.451377328729731 31.7130494217262 -5.91150593842191 -2.28488811745342 19.7096724853007 -15.001892035402 -0.0834124374837363 -42.7111762086097 15.0834070950347 1.67089110585289 15.1668195325184 40.4262880911562 25.6211784237226 50.207190395215 108.286153466717 -427.651488601736
0.00414999989420176 0.0572499968335032 0.00564999974519014 16 -0.0124000255266825 0.420089103516269 0.021300586524109 0.420811514234623 28.1687238742364 2.7425690544546 -1.45592242083778 -8.21141826675051 -12.6505687046781 0.791675457640502 -35.7132409975499 3.33571174618858 -2.12949584142754 2.54403628854808 34.2573185767121 -10.9539873212051 36.0558710189744 163.927157967686 -421.5123513751
0.006949999935925 0.0572499968335032 0.00564999974519014 16 0.0595788097381591 0.368018399562376 -0.0642500687461385 0.378305760358142 18.2906598142897 9.59021177576096 -1.15771130485767 -25.8115918914995 -9.04791412419118 0.822576699256866 -14.5231834089232 -6.41378215941489 -2.88056834361599 -7.23635885867175 13.3654721040655 -35.4018036672604 38.5264641122344 16.8612862738176 43.8841267349278
0.00974999997764826 0.0572499968335032 0.00564999974519014 16 0.0955399298667907 0.277280198425578 -0.0655929827453413 0.300523919219935 7.39016620635503 14.1574713405823 -0.999588131910748 -33.5149619594477 -5.31393380299121 0.0131143919745005 3.37033686156441 -12.8179218700219 -0.511450061229855 -12.8310362619964 -4.36992499347516 -47.67243330003 49.5620079572153 -432.94412828771 437.691418197149
0.0125500000193715 0.0572499968335032 0.00564999974519014 16 0.103990803956985 0.18034013016421 -0.0435253139600779 0.212676051332979 0.399365849636838 17.1721459187578 -0.843536184859933 -33.2461645964128 -1.98304520337806 -1.14514123528406 7.96570112360742 -16.394020228227 2.6092031778486 -15.2488789929429 -8.80923730846735 -50.4183105151707 53.4054024205649 -555.45685285545 553.929776513771
0.0153500000610948 0.0572499968335032 0.00564999974519014 16 0.10027969400088 0.090100972809984 -0.0196135581374013 0.13623103168157 -2.25384973238089 19.3583259017045 -0.974138456826465 -31.071393726237 0.832121489295682 -1.96146679513112 -3.55128852964513 -17.6588615422193 4.00801967591729 -15.6973947470882 2.57715007281866 -50.4297196279416 52.8791691131445 -557.009793621412 555.819657121728
0.018150000102818 0.0572499968335032 0.00564999974519014 16 0.0921337183316548 0.00590757337524944 -0.0655554976168181 0.113230052303217 -2.64709959267451 20.5532415471724 -1.65904776514996 -28.5828762165055 3.24776806691564 -1.88952834742292 -18.5627223371592 -16.7959932559609 3.09507362085146 -14.906464908538 16.9036745720092 -49.1361177636779 54.0582554194259 -518.445387256012 518.199758224409
0.0209500001445413 0.0572499968335032 0.00564999974519014 16 0.0836871540546418 -0.0682400252724377 -0.127026558647722 0.166721286597817 -2.31472917650239 20.2269759060373 -2.53169900025237 -28.3191310409067 5.22399353282889 -0.86968735148002 -25.150252470757 -14.6820266530537 1.51470661602092 -13.8123393015737 22.6185534705046 -48.546106946944 55.3091690209136 -497.095514370999 488.683291053751
0.0237500001862645 0.0572499968335032 0.00564999974519014 16 0.0760998523235321 -0.148892352720723 -0.208021099345448 0.266894919388257 -2.88998506914315 18.2022391988784 -2.88690656467915 -29.5697870478704 6.71987541732986 0.469071066946678 -17.5685019737453 -12.5059967975549 0.936336545299121 -12.9750678645016 14.6815954090662 -47.7720262467488 51.6339822361591 -498.519218008627 477.54964116162
0.0265500002279878 0.0572499968335032 0.00564999974519014 16 0.0651507524649302 -0.229963814046544 -0.224598196788017 0.327982204270306 -3.33730639085639 14.7771449302018 -2.28833846353697 -29.921285696305 7.79563713354405 1.37814364779108 -4.01127842931818 -11.4752311297405 1.31914960222148 -12.8533747775316 1.72293996578121 -44.6984306265068 46.5416745054366 -401.393594574211 428.651305002109
0.029350000269711 0.0572499968335032 0.00564999974519014 16 0.0560238055388134 -0.314097659533533 -0.227875435859702 0.392075529432459 -3.40007974297162 10.5576549517417 -1.05229410149641 -26.972429611048 8.59943567375057 1.55433169587253 5.23823663165293 -11.4234842704089 1.61631472445522 -12.9778159662815 -6.29053073314934 -37.5300845627897 40.2057425183209 -225.115610503672 287.198682745409
0.0321500003114343 0.0572499968335032 0.00564999974519014 16 0.0443257395426433 -0.380474348686791 -0.191855693615701 0.428408809862031 -2.38017665726063 6.67343178192153 0.0875140482912638 -17.4349176574437 9.23036689514359 1.31090362552231 6.84760983624494 -11.4591692358662 1.38421397783886 -12.7700728613885 -6.76009578795368 -24.1083494393652 28.1066925951458 -62.4887292671147 118.285563305612
0.0349500003531575 0.0572499968335032 0.00564999974519014 16 0.0405386249224344 -0.411581675743995 -0.18558831640267 0.453305503059486 -0.930626191641277 4.66920326764624 0.615202153306705 -11.1659741180635 9.46762113875319 1.1520837045416 1.64818103770583 -11.5974342649821 1.02065798448058 -12.7495179695237 -1.03297888439912 -15.8351773857097 20.3560825471827 -29.7816821333376 64.3859891982376
-0.0350500006899238 0.05444999679178 0.00564999974519014 16 0.0963856041431428 -0.00871618327839921 -0.324307739276749 0.338440048297741 1.02065323498959 39.6853671738919 -2.50847203437446 -4.48547384873962 2.43065772972727 -0.298772134015023 4.26992511224017 -48.4805780006878 -7.74281550162416 -48.1818058666728 -6.77839714661463 -44.1708410226316 65.7152667277366 -208.040301061864 149.992013257966
-0.0322500006482005 0.05444999679178 0.00564999974519014 16 0.099645451704661 -0.0208103519652779 -0.309455859680505 0.325768653932426 1.82459692871059 38.9822360232517 -2.02714444798371 -8.04293681049427 1.28150468559792 -0.0733667720998598 6.02259395307536 -48.0377606752138 -5.83482221869698 -47.964393903114 -8.04973840105907 -47.025172833746 67.6516685002095 -400.978416511215 306.43063232235
-0.0294500006064773 0.05444999679178 0.00564999974519014 16 0.10761315981547 -0.0526223004816954 -0.283745631341202 0.30799558759611 2.33800389409675 36.877742682114 -1.14340794653298 -14.6241585124339 -0.916185655565604 0.261569467148562 13.9181325108372 -46.3390326745425 -2.13771817893223 -46.600602141691 -15.0615404573702 -51.5019011945479 71.0697681688223 -594.29545361084 562.159441636561
-0.026650000564754 0.05444999679178 0.00564999974519014 16 0.113100706736247 -0.10267389769239 -0.219435196832443 0.267367733170028 -0.224135978325831 32.7393586407153 -0.44262383715374 -20.8195432460097 -2.97171137852376 0.374773247318845 23.5143385022202 -41.9256000473162 1.98762490595229 -42.300373294635 -23.9569623393739 -53.558901886725 72.3312767529199 -684.703363568893 702.053014713533
-0.0238500005230308 0.05444999679178 0.00564999974519014 16 0.105539769728978 -0.171509584461649 -0.139785031550952 0.245140848498071 -6.40557003197431 25.5020745023776 -0.294261430218468 -24.9554239182376 -3.88964333506755 0.149974957656111 30.3120350931613 -32.9119314737128 4.4737303391084 -33.0619064313689 -30.6062965233798 -50.4574984206151 67.6446168635762 -619.388583565591 629.128082724254
-0.0210500004813075 0.05444999679178 0.00564999974519014 16 0.075169125398 -0.246707208975179 -0.0445476794879263 0.261723785929331 -13.3658167111858 14.198569428469 -0.646307770998376 -23.8776065843387 -3.17777286735657 -0.255126926973373 32.0048206247274 -18.128701832227 4.38333462683956 -17.8735749052536 -32.6511283957257 -38.0761760128077 53.2480614216723 -206.950595871955 325.04513980712
-0.0182500004395843 0.05444999679178 0.00564999974519014 16 0.0278151094913484 -0.310404969532586 0.0380328001920134 0.313960856345161 -17.4831793240989 -1.01664041738463 -1.16884442344609 -14.8654772595201 -1.29503476839745 -0.701042874873549 26.4215243608134 1.50465597492569 2.42041050065225 2.20569884979924 -27.5903687842595 -13.8488368421355 30.9496985275711 0.263416855964215 -5.98502673343987
-0.015450000397861 0.05444999679178 0.00564999974519014 16 -0.0271209967136383 -0.334561141585776 0.100983361254815 0.350520106659004 -18.1242842187413 -18.0483523846036 -1.80625024087991 1.46432902553594 0.225887370555578 -1.22728753456024 18.0078402723294 23.1330445566268 0.459171561295298 24.3603320911871 -19.8140905132093 19.5126814101396 36.9698349776162 -0.62443504066725 75.0338075794349
-0.0126500003561378 0.05444999679178 0.00564999974519014 16 -0.0810843467712403 -0.304585526631836 0.143076080532992 0.346147048442703 -16.5965905985224 -33.1036394584914 -2.77391517215384 24.0293990015158 -0.323125501080184 -1.99201960805525 13.0153639770234 42.4954007265098 0.57760840663521 44.487420334565 -15.7892791491772 57.1330384600072 74.1121851502678 -746.945749560735 911.805559453113
-0.0098500003144145 0.05444999679178 0.00564999974519014 16 -0.130247383117676 -0.198191536588905 0.186474158520189 0.301690035931395 -13.373689656801 -42.5154946972746 -4.00801256003247 47.9427711446634 -3.40635351568357 -2.78002249347464 9.578101746777 55.7215328042315 2.99941035550431 58.5015552977062 -13.5861143068095 90.458265841938 108.580441762497 -2226.45409782167 2226.83217856533
-0.00705000027269125 0.05444999679178 0.00564999974519014 16 -0.165100005467733 -0.0286015858049601 0.209391462921243 0.268180624319323 -6.72150865115461 -44.189549134851 -4.87136947981037 66.1428754220074 -7.4738489655692 -2.99280805605024 5.44254794676846 59.7291065821341 5.87602143582921 62.7219146381843 -10.3139174265788 110.332424556858 127.33286840858 -3077.35834794248 3094.91757153548
-0.004250000230968 0.05444999679178 0.00564999974519014 16 -0.170610148111979 0.183809678343047 0.220864819871301 0.3341782296143 3.44367351514208 -38.1046803282379 -4.69081130516882 67.2940464410817 -10.3501024916563 -2.25644817083414 -5.66615194689316 53.5192112252785 6.77086900404199 55.7756593961127 0.975340641724336 105.39872676932 119.250857753864 -2574.10317554543 2575.99770458026
-0.00145000018924474 0.05444999679178 0.00564999974519014 16 -0.140774882634481 0.359586988554996 0.168491180266719 0.421318938271797 13.4849317491171 -25.9592480045858 -3.57819530393247 48.7333353352108 -10.9192279661182 -0.724510338866263 -19.4368648057225 38.5521535428068 4.62325181237422 39.2766638816731 15.85866950179 74.6925833397966 85.8669653010596 -1163.20806387807 1088.08012430231
0.0013499998524785 0.05444999679178 0.00564999974519014 16 -0.0858516947428385 0.464160585718055 0.0958929218710788 0.481675217640806 19.1482109904437 -10.7184056428549 -2.29994535921665 18.0201101806025 -9.57947525442921 0.867176911788048 -26.2084026538064 18.6991801005806 0.940056216074304 17.8320031887925 23.9084572945898 28.7385158234574 41.4185581553419 19.8398093828744 -57.7812045049897
0.00414999989420176 0.05444999679178 0.00564999974519014 16 -0.0246987760066986 0.461885434954117 0.00691420650410389 0.462597006919159 17.5114830031699 3.84959866661762 -1.53550466097139 -11.1788331393683 -7.27382140783706 1.81273738583177 -21.1979784708079 -0.57116063211843 -1.85399800613318 -2.3838980179502 19.6624738098366 -15.0284318059859 24.8626146780596 42.9224423952693 -134.836213502933
0.006949999935925 0.05444999679178 0.00564999974519014 16 0.0185117824872334 0.397608278512489 -0.0314454641829555 0.399279158547252 11.0127599303675 14.9370967003 -1.27438210003289 -28.9845163674166 -4.73613663978911 1.83806745572522 -4.34498941010424 -15.5151232520758 -1.9834572577804 -17.353190707801 3.07060731007135 -43.9216130677166 47.3251513622956 -379.71688398089 391.3178403522
0.00974999997764826 0.05444999679178 0.00564999974519014 16 0.0411274258295695 0.292313074183961 -0.0173430478902689 0.295701166389936 3.08395644400583 21.9539467817501 -1.15402936989735 -36.4281636216672 -2.38399082285243 0.98870676607959 8.96862855342902 -24.8874692321523 0.309284395023724 -25.8761759982319 -10.1226579233264 -58.3821104034173 64.6569060725996 -824.609499792205 827.562800068839
0.0125500000193715 0.05444999679178 0.00564999974519014 16 0.0378502571582795 0.185112834704729 0.0236128856507518 0.19041263589406 -2.55856277777337 26.2034105933339 -1.04091167672819 -35.6954928703074 -0.352349486351384 -0.25607879566808 11.0331330459576 -29.977094488162 2.9217853558169 -29.7210156924939 -12.0740447226857 -61.8989034636414 69.7179717128953 -938.037741743385 931.548122231525
0.0153500000610948 0.05444999679178 0.00564999974519014 16 0.0269884105523428 0.0855061833218982 0.0497889508700852 0.102560330143597 -4.1846908301031 28.9060003355197 -1.20906601853995 -33.2019128591323 1.41233122776472 -1.21324317224929 -3.25562676386538 -32.0753468622995 3.76701352978647 -30.8621036900502 2.04656074532543 -62.107913194652 69.3833606598451 -906.982078471551 900.529355309184
0.018150000102818 0.05444999679178 0.00564999974519014 16 0.0125726636250814 -0.00511433724236364 0.00485113415673065 0.0144139452845038 -3.01635853945486 30.0111847345543 -1.86596488726617 -30.5456812566897 3.09000882322412 -1.31681806688558 -20.2363624606411 -31.5602367908557 2.47469702798608 -30.2434187239701 18.370397573375 -60.556865991244 70.1375070971212 -825.576124670146 828.254338875825
0.0209500001445413 0.05444999679178 0.00564999974519014 16 0.0073490222295125 -0.0867811670231943 -0.0674345119119001 0.110147140110098 -0.576217180135307 28.9681973261028 -2.67132867049752 -29.9577300207215 4.71518737730983 -0.484782498007345 -27.9590662302802 -29.1917495107577 0.857472558792372 -28.7069670127504 25.2877375597827 -58.9259273468243 70.2554235603686 -766.946673125766 779.814011603431
0.0237500001862645 0.05444999679178 0.00564999974519014 16 0.00667195002237952 -0.172025688749854 -0.153177191117817 0.230435683837611 0.732452488337129 25.6319844794143 -2.97009889932469 -30.9078518622821 6.19596928703541 0.643779939821819 -19.9665508347101 -26.1609167457685 0.524612909673483 -26.8046966855903 16.9964519353855 -56.5398363416965 64.8392183508113 -742.004118167006 757.941814605817