TITLE="DynamicStudio Exported Data"
VARIABLES= "X (m)[m]" "Y (m)[m]" "Z (m)[m]" "Status[-]" "U[m/s]" "V[m/s]" "W[m/s]" "Length[m/s]" "dU/dX[1/s]" "dU/dY[1/s]" "dU/dZ[1/s]" "dV/dX[1/s]" "dV/dY[1/s]" "dV/dZ[1/s]" "dW/dX[1/s]" "dW/dY[1/s]" "dW/dZ[1/s]" "Vorticity X[1/s]" "Vorticity Y[1/s]" "Vorticity Z[1/s]" "Vorticity Magnitude[1/s]" "Lambda-2[1/s²]" "Q-Criterion[1/s²]"
ZONE T="DynamicStudio Data" I=26 J=26 F=POINT
-0.0350500006899238 0.0600499968752265 0.00564999974519014 16 -0.474524150888125 -0.0140119406282126 0.719534093656112 0.862031795347356 -0.137194468709395 -23.6742052787175 0.802649096229972 6.28362274902763 4.82892465553231 4.7865204188849 -3.69091152473888 34.0170301932879 3.20486020878627 29.230509774403 4.49356062096885 29.9578280277452 42.0961547990519 -70.6001779923143 3.27290967765611
-0.0322500006482005 0.0600499968752265 0.00564999974519014 16 -0.475969880620638 0.000655623509859045 0.709386788091312 0.854270081542552 -0.188726751603364 -23.5173214861818 0.28410544047784 14.0259271510745 2.39413463654198 4.0328007477398 -6.02718031307924 32.8823751486972 3.29928024550305 28.8495744009574 6.31128575355708 37.5432486372563 47.7663667156952 -223.037115642292 205.780946999344
-0.0294500006064773 0.0600499968752265 0.00564999974519014 16 -0.476352287133535 0.0547013841761509 0.682767434868341 0.834311160781654 6.96492820218351 -22.1394941045679 -0.420268275795265 25.8168896321532 -2.34872928568736 2.94067762604381 -12.9383262779214 29.4137614738405 3.55487929292681 26.4730838477967 12.5180580021261 47.9563837367211 56.1902187721379 -474.217736166698 479.690216568031
-0.026650000564754 0.0600499968752265 0.00564999974519014 16 -0.433553671042124 0.133323641826476 0.629099779166281 0.775571087193844 21.2820871937279 -18.6591617584401 -0.5275039485445 32.4333198163798 -7.22222705505503 2.37183252227621 -22.9873231233625 23.5676172303335 3.50038109882238 21.1957847080573 22.459819174818 51.0924815748199 59.7004726968652 -159.089226172094 432.665018846461
-0.0238500005230308 0.0600499968752265 0.00564999974519014 16 -0.347501279513041 0.227819449359473 0.540025213970027 0.681385406721502 34.1494388401946 -13.2512900482021 -0.093263551858747 28.6219610798206 -10.6124284491308 2.5782293455637 -31.2286513466899 15.8134735308668 3.05012750330052 13.2352441853031 31.1353877948311 41.8732511280227 53.8326408585866 23.0477891999117 44.9770580298493
-0.0210500004813075 0.0600499968752265 0.00564999974519014 16 -0.229628436962763 0.290096628115401 0.436559302144063 0.572249331143688 40.9636743688288 -6.96872655147841 0.471112148704989 14.7867550868497 -11.8449845866587 2.8864200993632 -40.5247576417637 6.98779507356416 1.98726148279251 4.10137497420096 40.9958697904687 21.7554816383281 46.5916687603234 85.6447434335249 -325.380794596462
-0.0182500004395843 0.0600499968752265 0.00564999974519014 16 -0.104943513472875 0.31064877575147 0.292331843850746 0.439287730109885 36.916557176937 -0.774153192182474 0.843272925102965 -0.924518718346276 -10.7046258432016 2.45431869233763 -43.9208302428626 -2.12077743287757 0.302674457847964 -4.57509612521519 44.7641031679655 -0.150365526163802 44.997544897235 107.123499809429 -345.717658322074
-0.015450000397861 0.0600499968752265 0.00564999974519014 16 -0.0115377227465312 0.287617511374798 0.169971271051715 0.334286082388339 28.134768450901 4.57944407857953 0.711141646191737 -13.3060224091702 -7.36696833454666 1.27506365308118 -41.554384757746 -10.3444042816185 -0.989635592010278 -11.6194679346997 42.2655264039377 -17.8854664877497 47.3421236191606 13.5863845228669 -124.145489413991
-0.0126500003561378 0.0600499968752265 0.00564999974519014 16 0.0605856418609618 0.241681942632446 0.0443758466851432 0.253081009092585 20.6719726555087 8.53212539933883 0.0927404146717951 -21.3858384204369 -3.32784618052183 0.0685628128766909 -36.8606567870829 -15.9124578796574 -1.22524928752433 -15.9810206925341 36.9533972017547 -29.9179638197757 50.1600552855284 24.5172681377261 96.9321067889901
-0.0098500003144145 0.0600499968752265 0.00564999974519014 16 0.108489162921906 0.173154717059806 -0.042412950671666 0.208689513143891 14.1493267188136 10.5060063156158 -0.974119830375269 -27.1262940506712 -0.543247861908422 -0.528097799456002 -30.6159153831729 -17.242034632915 -0.188067892442659 -16.713936833459 29.6417955527976 -37.632300366287 50.7363948160012 -43.3327692932805 235.814507705511
-0.00705000027269125 0.0600499968752265 0.00564999974519014 16 0.138639348347982 0.0929453317188503 -0.121009768753817 0.206162721490895 7.86858775887199 10.5374716899081 -2.16938043476311 -30.9370227220837 0.267718306671108 -0.429248640335647 -26.5816886425771 -14.758881568802 1.04511139390935 -14.3296329284663 24.412308207814 -41.4744944119918 50.2138711774767 -234.308170773331 272.606887157677
-0.004250000230968 0.0600499968752265 0.00564999974519014 16 0.149041957855225 0.000368443060967063 -0.182188613542045 0.235385496273624 -0.0287338456282181 9.61948518336113 -3.07287542034919 -32.3281657158797 -0.0148942063892977 -0.010605516565006 -19.0876696625814 -11.0831697099289 1.43640119133266 -11.0725641933639 16.0147942422322 -41.9476508992409 46.2458725553079 -282.296092499956 252.14649801324
-0.00145000018924474 0.0600499968752265 0.00564999974519014 16 0.135005554358165 -0.08792830309753 -0.221088051378028 0.273565006269625 -6.74519109388185 8.54950100452687 -3.46703865972222 -30.2742333287369 -0.0310891539293284 0.391058448338424 -6.73633202817354 -8.70399960089316 1.11095512040151 -9.09505804923158 3.26929336845132 -38.8237343332637 40.0086329137567 -207.766498367579 231.559796312796
0.0013499998524785 0.0600499968752265 0.00564999974519014 16 0.109238607883453 -0.167939011903751 -0.21909305952955 0.29688104335835 -11.6356056913552 7.25459491756239 -3.35145392561205 -26.4695487213985 0.689257724227968 0.637386708375853 10.2418030972767 -8.29585565682888 0.842954311088348 -8.93324236520473 -13.5932570228888 -33.7241436389609 37.4419192861032 -128.01698472906 214.391250642008
0.00414999989420176 0.0600499968752265 0.00564999974519014 16 0.067476785182953 -0.23404101110859 -0.164669915016663 0.294014442384983 -16.36595916865 4.85671977297339 -2.79194337132137 -22.3160141977323 2.08396574836862 0.674813927418604 28.2321673962131 -7.95897911076389 1.61381584878138 -8.6337930381825 -31.0241107675344 -27.1727339707057 42.1354399832867 -9.68709367760091 135.421464299444
0.006949999935925 0.0600499968752265 0.00564999974519014 16 0.0130480810006459 -0.290054889001573 -0.0563206638861448 0.295760220841293 -23.0288478943049 0.621466282068657 -2.00387028326974 -18.1664998380764 3.81577584537298 0.489684321008216 41.0946249487499 -5.27460176388786 3.35151940711033 -5.76428608489608 -43.0984952320197 -18.7879661201451 47.3676572807297 -3.35911924562969 -56.0448507512382
0.00974999997764826 0.0600499968752265 0.00564999974519014 16 -0.070007578531901 -0.333241878605137 0.077704229313725 0.349269463253548 -28.2156696527122 -4.95674744667629 -1.18262829891614 -9.34690971356804 5.25137858707717 0.148691932628037 41.998417105972 0.172104657896549 5.00096854903585 0.0234127252685122 -43.1810454048881 -4.39016226689175 43.4036490994059 37.1002179242057 -259.702205656475
0.0125500000193715 0.0600499968752265 0.00564999974519014 16 -0.15447269320488 -0.341111791895387 0.194208228200829 0.421824493619036 -31.0300955014973 -10.3983770393431 -0.502217340649173 7.23046645232653 5.39218143953872 -0.411551572916652 32.1595680677186 6.31096059723536 5.25905514922057 6.72251217015202 -32.6617854083677 17.6288434916697 37.7194978597792 28.2058993899591 -208.217614139689
0.0153500000610948 0.0600499968752265 0.00564999974519014 16 -0.252220592101415 -0.295661228551374 0.267233197445748 0.471640086258128 -27.3306104899174 -14.37802000632 0.0425135799158483 30.5882050583974 3.43321249760305 -1.22568020361037 13.938741099305 10.3509656862183 3.66929499794955 11.5766458898287 -13.8962275193892 44.9662250647174 48.4673628940128 8.79130361934852 270.373815814938
0.018150000102818 0.0600499968752265 0.00564999974519014 16 -0.311929106911023 -0.177118692779914 0.271967510725954 0.450152336393854 -19.0935276717833 -16.4313651656404 0.625827012216504 50.613094528155 -0.299789067361244 -2.10321734646837 1.42085021165893 11.0785105095258 1.29419600526451 13.1817278559942 -0.795023199442426 67.0444596937954 68.3326392494107 -411.744290415012 834.678825189819
0.0209500001445413 0.0600499968752265 0.00564999974519014 16 -0.360164475043615 -0.0219243474176619 0.268753613023243 0.449919582376873 -3.52299413937693 -16.708437346837 1.11016145775712 58.5329603279077 -4.49398234067414 -2.59065662811267 -6.80592107559849 8.68825505870174 -0.184587205832138 11.2789116868144 7.91608253335561 75.2413976747447 76.4927848595077 -844.998783288789 1025.3703619173
0.0237500001862645 0.0600499968752265 0.00564999974519014 16 -0.329841898282369 0.1430757465718 0.225207109839345 0.424245906806165 16.9319374614815 -15.2232311408048 1.21844435098578 51.3341686518391 -7.79710423629869 -2.1575523786633 -11.2493355163815 3.96192551636694 0.422215074712169 6.11947789503023 12.4677798673672 66.5573997926438 67.9910362598388 -423.821434514002 675.563448925195
0.0265500002279878 0.0600499968752265 0.00564999974519014 16 -0.261217101216316 0.262640565636248 0.198513394042978 0.420264212490245 35.2323509036143 -11.8156047699037 0.477911146361567 33.2013928545977 -9.97562880823707 -0.940354846119612 -20.8223121331614 -2.45630910052854 3.2127338963394 -1.51595425440893 21.3002232795229 45.0169976245014 49.8249706892373 -1.89462592179959 129.614221205671
0.029350000269711 0.0600499968752265 0.00564999974519014 16 -0.126625027259191 0.328397506620968 0.101706089342091 0.366364502227659 42.4491924644385 -6.7850510332655 -0.943781669778903 15.0877583269345 -11.31474798067 0.60780614662224 -28.9829797351414 -9.58667986115762 7.29429887473468 -10.1944860077799 28.0391980653625 21.8728093602 36.9938368166793 81.332918184506 -172.353523193098
0.0321500003114343 0.0600499968752265 0.00564999974519014 16 -0.0156012264887493 0.348420260035588 0.0309564677233963 0.350140512887512 30.2408508352879 -1.84909530658266 -2.42134452042487 3.40148062193498 -12.1287560629507 1.88675092273016 -23.5255721298772 -15.7861436170024 10.9855626975619 -17.6728945397325 21.1042276094523 5.25057592851764 28.0229936299676 114.071083675483 -188.701682488948
0.0349500003531575 0.0600499968752265 0.00564999974519014 16 0.0481964711348215 0.347577561424114 -0.0353683192251871 0.352681129407568 21.7804305833719 0.83885122240038 -3.20934878718861 0.0104091401167203 -12.6068777992511 2.35788211315199 -21.9674420339988 -19.283891397133 12.5170573724153 -21.6417735102849 18.7580932468102 -0.82844208228366 28.6516795181399 113.288296404599 -184.798112844018
-0.0350500006899238 0.0572499968335032 0.00564999974519014 16 -0.408410398960114 -0.0292211962253593 0.624783797363828 0.746999147078472 -0.275727676642599 -43.3496415896483 1.41063993912123 8.06936916788913 11.9017569942747 4.608633321647 -2.06482521694442 63.9798571669522 2.53028456371482 59.3712238453052 3.47546515606565 51.4190107575374 78.6189274044369 -130.645983221037 83.9928032627509
-0.0322500006482005 0.0572499968335032 0.00564999974519014 16 -0.408285391728083 -0.00872768838564904 0.613908490692265 0.737330840659176 -1.10250921784931 -42.4419759849365 0.844123405908825 17.3840795900454 8.75995242201338 3.78887189473819 -2.34323364989981 60.1321000827049 2.30007997253353 56.3432281879667 3.18735705580864 59.8260555749819 82.2427840804488 -470.116000080448 519.9146463369
-0.0294500006064773 0.0572499968335032 0.00564999974519014 16 -0.412656412521998 0.0625152705475921 0.598228828952027 0.729432111739316 4.38363428776488 -39.4061753981432 -0.0844073336233968 30.3018712228452 2.49777303309353 2.69924796128718 -6.79798968990576 51.4640213897954 2.25203233962844 48.7647734285082 6.71358235628236 69.7080466209885 85.336317469775 -1036.15101507288 1081.03937263927
-0.026650000564754 0.0572499968335032 0.00564999974519014 16 -0.379264324506124 0.153900711386632 0.558812988426847 0.692675113486071 16.5593114475795 -33.2622165196188 -0.540787044482172 36.6362103281765 -4.5655998129394 2.28201776663776 -15.4096867888237 39.6947632150766 2.28495136211432 37.4127454484388 14.8688997443416 69.8984268477954 80.663422797409 -1060.82999569937 1071.4859050088
-0.0238500005230308 0.0572499968335032 0.00564999974519014 16 -0.310863087972005 0.260547171835982 0.49522149214589 0.640128904595333 27.8242142538879 -24.0168400905764 -0.427179821565882 31.4008811441318 -10.4173432576888 2.71248944622195 -22.822110748316 26.2953008486528 2.44661211238114 23.5828114024309 22.3949309267501 55.4177212347082 64.2557837996266 19.2750408537667 425.808540567115
-0.0210500004813075 0.0572499968335032 0.00564999974519014 16 -0.210496988693873 0.324127085949731 0.416514496059778 0.568200383248184 34.0278071913095 -12.8499361589915 -0.0633364711275466 15.357155962825 -13.3558121521326 3.1431368312521 -31.6930899669188 11.9989853945348 2.27716435466011 8.85584856328272 31.6297534957912 28.2070921218165 43.295581829431 56.3577235498753 -249.778778256066
-0.0182500004395843 0.0572499968335032 0.00564999974519014 16 -0.104375095367432 0.343834350872009 0.300626290220146 0.468500147005381 30.4680219021852 -1.53039149315237 0.205156354813167 -2.82383834421193 -12.4070129833946 2.68096533973795 -35.2345801215044 -2.48274156618777 1.37742064647202 -5.16370690592573 35.4397364763175 -1.29344685105956 35.837296149091 144.329851665512 -343.576372810349
-0.015450000397861 0.0572499968335032 0.00564999974519014 16 -0.0257258315881093 0.308185526241238 0.202119227846464 0.369448669317862 23.3817881480444 7.88659166086872 0.0801451492287999 -16.9385699631966 -7.98769830638754 1.36986953225984 -35.0618598909552 -14.9203076047565 0.399895879982135 -16.2901771370163 35.142005040184 -24.8251616240653 46.006728193392 -3.64590717687611 -23.7741390750051
-0.0126500003561378 0.0572499968335032 0.00564999974519014 16 0.0349964249134063 0.250387059158529 0.0936521087672251 0.26960924803746 17.9122342764218 14.0817499025591 -0.399397547126287 -24.4126691037632 -2.67469412037649 -0.000762046497976484 -33.8313317745072 -22.58613961811 -0.164997337626641 -22.5853775716121 33.4319342273809 -38.4944190063223 55.7639112766537 4.78059317831345 279.819836898094
-0.0098500003144145 0.0572499968335032 0.00564999974519014 16 0.0768177350362143 0.17215599258896 0.00976225606476268 0.188769573405933 13.5027879522254 16.8300667428085 -1.19667482508778 -28.420954741998 0.718597814738775 -0.780573772074293 -31.3422218207452 -24.4459659420277 0.0372699993864833 -23.6653921699534 30.1455469956574 -45.2510214848066 59.2997448193793 -296.696634027189 431.971342493756
-0.00705000027269125 0.0572499968335032 0.00564999974519014 16 0.109340677261353 0.0911289666511584 -0.0804412426807297 0.163495155252072 8.3861214233945 16.9485833867768 -2.09146756223212 -30.7009441845468 1.50685791233553 -0.86612247983257 -28.9120382510124 -22.2170275840578 0.443019561839356 -21.3509051042252 26.8205706887803 -47.6495275713236 58.6999287785923 -443.869170168397 457.6457321702
-0.004250000230968 0.0572499968335032 0.00564999974519014 16 0.121774529616038 0.000103229202019672 -0.152929989607073 0.195490737480565 0.879229450180554 15.8290819286278 -2.8252849200432 -32.0526493185984 1.08946714853743 -0.580041786968841 -20.9693238385623 -19.2302610859326 0.477541701362672 -18.6502192989638 18.1440389185191 -47.8817312472262 54.4949265107108 -468.336732994992 438.863368990133
-0.00145000018924474 0.0572499968335032 0.00564999974519014 16 0.112136284510295 -0.0876648308709264 -0.200903891182776 0.246215438930589 -5.73008129970537 14.2626702315873 -3.19727840725663 -30.7268348681419 1.27195060650783 -0.20100081427475 -7.34953861595205 -17.5284570251851 0.329395696892086 -17.3274562109104 4.15226020869542 -44.9895050997292 48.3894365817612 -401.389661155695 402.468088278601
0.0013499998524785 0.0572499968335032 0.00564999974519014 16 0.0876366412639618 -0.169962476861159 -0.195990114799788 0.273823938931647 -9.90232221572969 11.9459123241068 -3.11792155605245 -27.4445613569083 2.45944915537026 0.178206048283487 9.90618665568657 -16.7156819771712 0.495645977963088 -16.8938880254547 -13.024108211739 -39.390473681015 44.7955384401441 -328.923470136926 333.672584178217
0.00414999989420176 0.0572499968335032 0.00564999974519014 16 0.0534355696042379 -0.239295474950147 -0.140980841008325 0.282830836299652 -13.1940092226289 7.83997061732313 -2.56129586356933 -23.5064419800501 4.15998689848428 0.474843846475142 26.090885539625 -14.3510758610147 1.38781003364468 -14.8259197074898 -28.6521814031944 -31.3464125973732 44.981696022485 -105.995644973438 190.506399383572
0.006949999935925 0.0572499968335032 0.00564999974519014 16 0.00961616992950431 -0.301052946959001 -0.0392978657107839 0.303759230059327 -18.1984836096081 1.24940755024017 -1.70020403556577 -19.0875616357281 5.69420644611896 0.622180697710934 36.4149745757324 -8.42493608036775 2.72495651815253 -9.04711677807868 -38.1151786112981 -20.3369691859683 44.1385260089004 -8.27653716268765 -46.6966712801647
0.00974999997764826 0.0572499968335032 0.00564999974519014 16 -0.0542005276679993 -0.347751213222218 0.0761862388489923 0.360101300312801 -22.7698616542747 -7.16736015664591 -0.760499004118168 -9.69207522338158 6.48189950634947 0.562772984557079 35.8601267590264 0.577435832333904 3.67332100392873 0.0146628477768243 -36.6206257631446 -2.52471506673566 36.7075555226931 68.7235452376277 -249.9428368759
0.0125500000193715 0.0572499968335032 0.00564999974519014 16 -0.124447454214096 -0.358126070068295 0.172165939582822 0.416392317022501 -26.0773078924913 -15.7520792332005 0.0336818569421026 8.08481660994845 5.92578057438724 0.112947154805256 26.8985097097742 9.93049922411086 3.41092964208318 9.8175520693056 -26.8648278528321 23.836895843149 37.2330620233277 15.7371964649148 -97.9387879675658
0.0153500000610948 0.0572499968335032 0.00564999974519014 16 -0.208377594550451 -0.305556559107111 0.233351452565209 0.43730873892286 -23.8363506859753 -22.8725789904896 0.675561091597045 32.7159377920817 3.59668733039286 -0.799787609455579 11.3649605883081 16.4186697300578 1.78598699040164 17.2184573395134 -10.6893994967111 55.5885167825713 59.1677423334636 -251.282849286592 631.871918871953
0.018150000102818 0.0572499968335032 0.00564999974519014 16 -0.265290421644847 -0.177232772473847 0.23707051613898 0.397483198484753 -17.398784180453 -27.3771338993217 1.30631253837648 53.5913536382992 -0.264970658447536 -1.8917279889105 1.7503071086294 18.4204784029817 -0.24972661929352 20.3122063918922 -0.443994570252926 80.9684875376209 83.4786130324115 -1202.18528616103 1508.75902792408
0.0209500001445413 0.0572499968335032 0.00564999974519014 16 -0.310126456022263 -0.00755637996441995 0.241327508558661 0.393032421042114 -3.9052205583574 -28.5972935779394 1.76048196357622 61.5927146852342 -4.90491970148051 -2.57341030490578 -3.98830493768622 16.0701571850403 -1.22933059776995 18.6435674899461 5.74878690126244 90.1900082631736 92.2760464589788 -1689.17769526819 1839.74675937275
0.0237500001862645 0.0572499968335032 0.00564999974519014 16 -0.286361237764359 0.165098836282268 0.212542866690395 0.392982002662546 14.2198579129598 -25.9980563457812 1.71862984885685 53.6990143215758 -9.22847909666888 -2.27960607691675 -6.78279284539605 10.3614415569209 -0.124390988129344 12.6410476338376 8.50142269425289 79.6970706673571 81.1399614620627 -1230.92381199007 1299.49857137629
0.0265500002279878 0.0572499968335032 0.00564999974519014 16 -0.224641785224279 0.291211868498164 0.203324268119153 0.420248785874667 30.4598819892623 -19.6493833398745 0.712920333323495 34.8385438838002 -12.5043009382953 -1.09231517311135 -14.9858613910194 2.19785968275872 3.1714307224964 3.29017485587006 15.6987817243429 54.4879272236747 56.7997465781603 -26.8094200759438 373.705735000317
0.029350000269711 0.0572499968335032 0.00564999974519014 16 -0.108108312686284 0.360387308651892 0.130478708811764 0.398234997159233 36.8138448008771 -10.9184180075071 -1.03518437559485 15.7208897936734 -14.328210376759 0.488858772564583 -23.1735043065222 -7.07127623445933 7.68498158709466 -7.56013500702391 22.1383199309273 26.6393078011805 35.4529768963702 108.204978556248 -203.559574509002
0.0321500003114343 0.0572499968335032 0.00564999974519014 16 -0.0114332135518391 0.382317642547035 0.076488932214949 0.390061604014324 26.2051461824055 -2.89268426662422 -2.78980966402943 3.57133588794605 -14.859861082082 1.83931209819045 -19.4819840109118 -14.8578518634289 11.7771374601948 -16.6971639616194 16.6921743468824 6.46402015457026 24.4787157617921 189.022528911473 -272.481903203278
0.0349500003531575 0.0572499968335032 0.00564999974519014 16 0.0424524108568827 0.384305436873498 0.0257751854441206 0.387501272491808 18.7212945380283 1.26675022504506 -3.70323589791762 0.12788453554785 -14.9095009011366 2.42503400700909 -18.6288884086546 -18.8483752641321 13.6395558113815 -21.2734092711412 14.925652510737 -1.13886568949721 26.0121137154876 176.670211490415 -250.575200798351
-0.0350500006899238 0.05444999679178 0.00564999974519014 16 -0.228976362943649 -0.0866018818054969 0.353165187399524 0.429715848334799 -0.381471506652219 -65.6617442601201 2.2167073971571 10.9628673720709 16.051921989306 3.61901569134655 1.43614826891183 99.3914524230739 1.05875923036081 95.7724367317274 0.780559128245272 76.624611632191 122.655207870965 -230.544481217499 367.426130573093
-0.0322500006482005 0.05444999679178 0.00564999974519014 16 -0.232681079705556 -0.0566137798850233 0.359198291580348 0.431704780608293 -2.35759661464261 -65.2790745247021 1.53652939961984 22.6088044022059 13.0045023480129 2.80719480367625 4.98795955893157 94.7410251365378 0.552495571902357 91.9338303328615 -3.45143015931173 87.887878926908 127.232153137824 -1005.4798622086 1177.48416508271
-0.0294500006064773 0.05444999679178 0.00564999974519014 16 -0.250604198773702 0.0415296471656378 0.388941474493283 0.464545634591178 -0.194153937737211 -62.4819994892 0.220766731219568 37.1240232911443 7.21980485647316 1.9309388183047 5.58789901812423 83.6920219125859 0.411961932523348 81.7610830942812 -5.36713228690466 99.6060227803442 128.976899450458 -2090.66493391824 2158.23795540743
-0.026650000564754 0.05444999679178 0.00564999974519014 16 -0.241560281117757 0.157037211409382 0.398295696362232 0.491580631149764 7.1133748529112 -54.6022335475539 -0.794033126692888 43.1292987695595 0.967937192824059 1.99752934302191 0.195309245660364 67.4703953447906 0.831251241949144 65.4728660017687 -0.989342372353252 97.7315323171134 117.639820596031 -2209.82901325598 2233.93993244344
-0.0238500005230308 0.05444999679178 0.00564999974519014 16 -0.212314277092616 0.293954381669561 0.392118607884816 0.534081953832575 14.3347740698213 -40.9122331978615 -1.19051304424038 36.0839392262945 -4.35646588597225 3.00321683055493 -5.51908226457556 47.9618331929899 1.94998506635537 44.9586163624349 4.32856922033518 76.996172424156 89.2660308554727 -1297.34562758692 1282.67280995366
-0.0210500004813075 0.05444999679178 0.00564999974519014 16 -0.157860240141551 0.368664122597353 0.367034775551098 0.543642913291316 18.760949750046 -23.3228395041163 -1.16024083015106 16.8346409438274 -7.57854005469357 3.7647123696467 -13.5671395930719 26.8291697895206 3.08064432620161 23.0644574198739 12.4068987629209 40.1574804479438 47.9429199039184 0.427707834277392 168.154790000545
-0.0182500004395843 0.05444999679178 0.00564999974519014 16 -0.10208927989006 0.389509098451041 0.313729830319062 0.5104566242852 16.5246103571401 -5.43211518364688 -1.05320077061849 -5.38287201802188 -7.44579053062406 3.31188833665225 -17.8207412948127 5.7711075497047 3.38462871119239 2.45921921305245 16.7675405241942 0.0492431656250041 16.9469938118152 82.9834621887251 -159.432816139724
-0.015450000397861 0.05444999679178 0.00564999974519014 16 -0.0625359308719635 0.331912515307 0.26506988937724 0.429346837326077 13.2537609918281 9.22234036359345 -1.11731368979981 -22.6734274463726 -3.57121405064513 1.78651650980857 -22.0048743952257 -12.2621507341477 2.90296805428542 -14.0486672439562 20.8875607054259 -31.8957678099661 40.632440829238 13.3419091706851 187.198359424359
-0.0126500003561378 0.05444999679178 0.00564999974519014 16 -0.0249498844146729 0.254227374745842 0.183739660943174 0.314665406115736 12.0523672942843 19.0150762602569 -1.28153995253334 -29.2862914991427 1.72426164189939 0.0998323109976862 -26.7888508687041 -24.6957851223266 1.79751991655353 -24.7956174333243 25.5073109161708 -48.3013677593996 59.987229320104 -431.195356065783 570.560720381648
-0.0098500003144145 0.05444999679178 0.00564999974519014 16 0.00876340389251706 0.162841649727585 0.10241932896742 0.19257185432955 11.4854914450016 24.1439229093688 -1.54574206013013 -30.2299859536748 5.01362331384043 -1.05596687939758 -30.0217818620064 -31.1988796629509 0.663574044448918 -30.1429127835533 28.4760398018763 -54.3739088630436 68.3812986051121 -586.165923733032 719.05184786421
-0.00705000027269125 0.05444999679178 0.00564999974519014 16 0.0436850516001384 0.0819545174841672 0.000193608298044018 0.0928706851139933 8.60328700523359 25.8255371907853 -1.87924296588834 -29.7489431720181 5.0823934153918 -1.54907649979593 -29.7454116011276 -33.9148846295443 -0.252627651315093 -32.3658081297484 27.8661686352393 -55.5744803628034 70.0898834204688 -630.340865524843 700.114739908535
-0.004250000230968 0.05444999679178 0.00564999974519014 16 0.0598692115147907 -0.00634897938657862 -0.0789383980016767 0.0992768991544613 2.27595645322088 25.3311460640548 -2.2637793900432 -30.9873202891141 3.4824541371769 -1.58311711420085 -21.4648981325751 -35.5727034835414 -0.76075207361588 -33.9895863693405 19.2011187425319 -56.3184663531689 68.5255032443884 -684.626563939145 683.581977861288
-0.00145000018924474 0.05444999679178 0.00564999974519014 16 0.0567409626642863 -0.0949101997747008 -0.129111927722115 0.169992272605152 -3.49619181140545 23.266941269755 -2.54204307575814 -31.1411288718156 2.64893565339582 -1.31707785141658 -7.43282100906766 -36.6956508571604 -0.603812404684893 -35.3785730057438 4.89077793330952 -54.4080701415706 65.0830333746496 -649.268956282208 648.583633005483
0.0013499998524785 0.05444999679178 0.00564999974519014 16 0.0387208207448324 -0.183184286637406 -0.122159428113567 0.223559188375344 -5.84295182282348 19.2904392960295 -2.49087180601108 -28.9013563291819 3.33252608048064 -0.779226420000857 8.05254788475928 -35.5715047411314 0.167914891648899 -34.7922783211306 -10.5434196907704 -48.1917956252113 60.3665097146826 -523.308933350622 529.966140837156
0.00414999989420176 0.05444999679178 0.00564999974519014 16 0.0219178974628449 -0.257638501555969 -0.0793788501031425 0.270479192465694 -6.42362921018245 12.5666305974604 -1.95050731587931 -25.0810664022628 4.66340773185295 -0.0796954225184076 19.8446070630889 -29.8361936098245 1.10087926412654 -29.7564981873061 -21.7951143789682 -37.6476969997232 52.7050783563256 -302.437866828046 319.619946217756
0.006949999935925 0.05444999679178 0.00564999974519014 16 0.00165999968846631 -0.323657871962059 -0.00465622364388157 0.323695619526425 -8.39400122236115 2.58233126484995 -1.05010898372085 -19.7112779811588 5.32752895186167 0.624504599419173 25.4801706276772 -18.5812509658801 1.67855318238741 -19.2057555652993 -26.530279611398 -22.2936092460087 39.6197147428741 -19.8777287061894 39.3955608524718
0.00974999997764826 0.05444999679178 0.00564999974519014 16 -0.0263661321004232 -0.368661219763259 0.070352089474521 0.37623886611128 -11.7907212620653 -9.78452380772029 -0.0371261538638619 -9.09949959195972 4.57097660563999 1.06100699954566 22.992882589514 -3.78157476101415 1.51330009329436 -4.84258176055981 -23.0300087433779 0.685024215760572 23.5436012326905 83.6471375445139 -148.98910712299
0.0125500000193715 0.05444999679178 0.00564999974519014 16 -0.0653094089031219 -0.376870691048292 0.128572567280886 0.403519196222051 -15.5573297812088 -22.6989232346576 0.859010295471122 10.2488275695728 2.37050894655602 0.85000710882244 15.5463987183654 11.0847170081302 0.484647665821242 10.2347098993077 -14.6873884228942 32.9477508042304 37.4969725240001 -48.6212941897401 166.59099406621
0.0153500000610948 0.05444999679178 0.00564999974519014 16 -0.115498400131861 -0.314935202483709 0.161682500431586 0.372377890243612 -15.5731017849499 -34.3616504896765 1.66140315973372 36.0493114575892 -0.79778243458141 -0.158281978064739 4.44323611222054 22.8703819696797 -1.21925927126491 23.0286639477445 -2.78183295248682 70.4109619472657 74.133403538034 -1102.8665812719 1267.33610289959
0.018150000102818 0.05444999679178 0.00564999974519014 16 -0.154948217074076 -0.178039621374725 0.158650261944082 0.284388752183726 -12.3997455536884 -43.1193831086345 2.42306554538553 57.5099639632389 -4.18810843618819 -1.56511537105049 -0.647368701786651 30.1879735832595 -2.80260193284101 31.75308895431 3.07043424717218 100.629347071873 105.56491707342 -2476.39682943139 2627.03107758085
0.0209500001445413 0.05444999679178 0.00564999974519014 16 -0.189523450533549 0.00769384105845044 0.169945852997868 0.254676120677908 -3.47226313684843 -47.3312194782905 2.86451117080256 65.4878815159764 -7.36193654883711 -2.58191884885013 -1.83085231240286 32.7785179863335 -3.07749111360077 35.3604368351837 4.69536348320542 112.819100994267 118.323947198228 -3125.75752014589 3248.40199767823
0.0237500001862645 0.05444999679178 0.00564999974519014 16 -0.179854586919149 0.194679818290169 0.163970176516062 0.311663476962026 8.79091519239695 -44.9344714113947 2.54561639189865 56.8021567434975 -10.0366864063125 -2.5627016456401 -0.23132758440333 29.7783157281769 -1.22968054437503 32.341017373817 2.77694397630198 101.736628154892 106.789486050584 -2518.56532541971 2542.57693992191