TITLE="DynamicStudio Exported Data"
VARIABLES= "X (m)[m]" "Y (m)[m]" "Z (m)[m]" "Status[-]" "U[m/s]" "V[m/s]" "W[m/s]" "Length[m/s]" "dU/dX[1/s]" "dU/dY[1/s]" "dU/dZ[1/s]" "dV/dX[1/s]" "dV/dY[1/s]" "dV/dZ[1/s]" "dW/dX[1/s]" "dW/dY[1/s]" "dW/dZ[1/s]" "Vorticity X[1/s]" "Vorticity Y[1/s]" "Vorticity Z[1/s]" "Vorticity Magnitude[1/s]" "Lambda-2[1/s²]" "Q-Criterion[1/s²]"
ZONE T="DynamicStudio Data" I=26 J=26 F=POINT
-0.0350500006899238 0.0600499968752265 0.00564999974519014 16 -0.0819848881165186 -0.39034793776266 0.00872481814818457 0.398960094303626 -17.1926754137972 -1.4970533918023 2.04236419222918 5.71361054536706 6.66026946707383 -2.15306688274734 15.1660677460397 1.02227908821338 -10.2700325927052 3.17534597096071 -13.1237035538105 7.21066393716935 15.3071255112901 40.6425475192869 -26.5597171686703
-0.0322500006482005 0.0600499968752265 0.00564999974519014 16 -0.131402343312899 -0.371231967691953 0.0529588235231737 0.397346683204376 -27.7279100373486 -3.65752601306018 2.14537397851106 9.52690831624472 8.07199789763842 -1.61008841310001 23.0068389534525 3.78251838051915 -10.8682037720173 5.39260679361916 -20.8614649749414 13.1844343293049 25.2608439588833 52.1738691574133 -18.6183426791623
-0.0294500006064773 0.0600499968752265 0.00564999974519014 16 -0.244111848672231 -0.331754472087487 0.144654736745482 0.43655081866276 -43.1032186504939 -8.5488760486531 2.2690755169184 22.3536280634261 9.89592042297382 -0.840934237895837 38.0112300854828 10.0708730832488 -11.8700643056467 10.9118073211447 -35.7421545685644 30.9025041120792 48.4926170938835 57.5113485370024 80.9437296163329
-0.026650000564754 0.0600499968752265 0.00564999974519014 16 -0.383960818449656 -0.241773036907349 0.278683431781828 0.532489029586178 -40.634100471867 -14.2883780574591 2.49264916563867 36.3501460789153 10.2743449594726 -0.089123814969888 40.5413111882264 17.5698571981295 -12.129696105902 17.6589810130994 -38.0486620225877 50.6385241363744 65.7556113106729 75.6151768373838 370.661099663148
-0.0238500005230308 0.0600499968752265 0.00564999974519014 16 -0.481299282709758 -0.128545516079369 0.385607445849261 0.629973056197985 -21.0772888935111 -18.9117763270835 2.87347954392691 43.821357553472 8.03131856201121 0.376894361550707 28.487780000547 23.1991844068761 -10.6525725064416 22.8222900453254 -25.6143004566201 62.7331338805555 71.5010167569012 -278.388745170213 707.831740867287
-0.0210500004813075 0.0600499968752265 0.00564999974519014 16 -0.508280628124873 -0.00279573480702917 0.45019481831075 0.678993657918817 8.82798672443901 -20.6465447822421 3.03304746721427 46.0837022071198 3.47546184880671 0.474082680298278 3.55113863536552 24.5251785296772 -6.80768223256 24.0510958493789 -0.518091168151252 66.7302469893618 70.9341207972282 -826.705960625324 875.9948497462
-0.0182500004395843 0.0600499968752265 0.00564999974519014 16 -0.431433081229528 0.119564748461125 0.412523686168327 0.608774198125776 33.874461511907 -18.6336700348813 2.5680326370526 40.311559240786 -2.14724385892409 -0.0308355115993732 -24.7684446212147 21.186242641005 -1.51070990898147 21.2170781526044 27.3364772582673 58.9452292756674 68.3519381479887 -44.941719257323 694.744404722816
-0.015450000397861 0.0600499968752265 0.00564999974519014 16 -0.313092283407847 0.210562221033421 0.312189760251592 0.489719994754159 44.5813950544718 -13.5533387689694 1.32997976555978 30.2878588590817 -7.35059257952036 -1.03624433808186 -41.7663792453506 15.0010145222383 3.22827124730525 16.0372588603202 43.0963590109104 43.841197628051 63.5337740199024 8.31343609017305 274.08622481695
-0.0126500003561378 0.0600499968752265 0.00564999974519014 16 -0.172836756706238 0.278823489239464 0.173543004841777 0.371122967693881 43.2949696439639 -6.89782100902599 0.0304783970779447 14.8546670106702 -10.6430988460442 -1.77784270406103 -44.1930094217943 8.08179678104343 5.29516960327809 9.85963948510446 44.2234878188722 21.7524880196962 50.2603233245589 65.4601525143873 -169.715517997486
-0.0098500003144145 0.0600499968752265 0.00564999974519014 16 -0.0595052170753478 0.289214839907363 0.0524667585125038 0.29989807473646 35.7839060473727 -0.447301382540709 -0.422805257582311 -0.805614324374014 -11.0274122420363 -1.65973941675663 -35.5355797544582 1.97018162155046 4.15109403987238 3.62992103830708 35.1127744968759 -0.358312941833305 35.301723014282 118.982522621193 -303.952343988255
-0.00705000027269125 0.0600499968752265 0.00564999974519014 16 0.0389983828862508 0.277858348574567 -0.0401420014198326 0.283438734153111 29.5825027606559 4.84333362249864 0.313876753815048 -11.3392791323352 -8.34056987964801 -0.483284557386245 -27.6380728924951 -2.86393912998225 1.13111060614173 -2.38065457259601 27.9519496463102 -16.1826127548338 32.386045772783 41.7641052223335 -160.49719299055
-0.004250000230968 0.0600499968752265 0.00564999974519014 16 0.117569394111633 0.236721871163997 -0.117148233779396 0.289108137894443 23.2456685773412 8.78208960728237 1.69860049916358 -19.256219672662 -3.72364887271002 1.05334596938107 -23.122854678867 -7.04646161168401 -2.03764926881643 -8.09980758106508 24.8214551780306 -28.0383092799443 38.3126390018108 2.74347056991375 89.4709643291381
-0.00145000018924474 0.0600499968752265 0.00564999974519014 16 0.178030690352122 0.182231686497883 -0.182565867482917 0.313422415026281 15.4144129020414 11.5634311100566 2.65352805995462 -24.7416418444398 0.871140081882048 2.09439072875395 -18.8435749883001 -11.2787193172398 -4.20016190883577 -13.3731100459937 21.4971030482547 -36.3050729544964 44.2608611981381 -137.642742903723 304.748424779677
0.0013499998524785 0.0600499968752265 0.00564999974519014 16 0.20913551568985 0.107102307526123 -0.233811830510385 0.331476304261552 5.36805232724169 13.2306487589765 2.5836217231296 -30.2669640574337 3.84436083564076 2.29492592777474 -11.616376430087 -15.3829103466761 -5.10633154598242 -17.6778362744508 14.1999981532166 -43.4976128164102 49.0529118771147 -434.15980562336 439.361626914784
0.00414999989420176 0.0600499968752265 0.00564999974519014 16 0.208595788478851 0.0155114851346783 -0.255229174073708 0.329992030874299 -4.24995290671382 13.5034554769317 1.59263454724495 -30.7344494805338 4.51883701571338 1.92716523194411 -3.60739603979071 -18.0828185617813 -4.31992224336828 -20.0099837937254 5.20003058703566 -44.2379049574655 48.8306461615757 -434.166592967899 435.248710001526
0.006949999935925 0.0600499968752265 0.00564999974519014 16 0.181619314750036 -0.0669461577913413 -0.253400732176378 0.318871909394384 -10.2308698957532 12.2305279519531 0.37823285757817 -28.0948732361317 3.47348711408646 1.61752363378806 0.753552959714526 -18.0575913638922 -1.72631368286044 -19.6751149976803 -0.375320102136356 -40.3254011880848 44.8708033840603 -329.543653392106 348.667262339705
0.00974999997764826 0.0600499968752265 0.00564999974519014 16 0.145150883992513 -0.145202322459469 -0.24156124804557 0.317024179091698 -11.9161364300423 9.59997673715899 -0.318293552537642 -25.8547212527998 1.94713328676231 1.51368351331243 1.7718588020144 -15.2928090321133 1.93011212808319 -16.8064925454257 -2.09015235455204 -35.4546979899588 39.2920162132701 -194.350071518383 229.473566945161
0.0125500000193715 0.0600499968752265 0.00564999974519014 16 0.108241454362869 -0.214656827615258 -0.228539070874297 0.331698466985488 -14.0116427587926 6.0284570380353 -0.330751100504823 -25.8401513711775 1.20449974538117 1.33477890000047 5.7692436337997 -10.8052329514503 4.8319120949389 -12.1400118514508 -6.09999473430453 -31.8686084092128 34.6438742846648 -46.5707616446899 93.3470136681653
0.0153500000610948 0.0600499968752265 0.00564999974519014 16 0.0597342638174694 -0.290730136289106 -0.19605631673825 0.355710941290068 -21.1435893228336 1.65001288081191 0.0740543706394981 -22.101124601866 1.93957023581302 0.792943707311231 17.879683368235 -5.23732507089703 5.41831610609333 -6.03026877820826 -17.8056289975955 -23.7511374826779 30.2906107112173 19.2362523388712 -105.766946917198
0.018150000102818 0.0600499968752265 0.00564999974519014 16 -0.0181778671344122 -0.337271724129096 -0.118244071457884 0.35786074272754 -34.8899622210905 -3.44467697233088 0.407893985108415 -7.99972980328583 3.5919641347377 0.144369361063457 35.4753108316802 1.01837418689333 4.16314779299458 0.874004825829874 -35.0674168465718 -4.55505283095495 35.3728160459355 16.2849672961005 -297.795357595885
0.0209500001445413 0.0600499968752265 0.00564999974519014 16 -0.145297360022863 -0.333248886080692 0.0108890781683537 0.363709657456317 -45.6168532906397 -9.18320559236218 0.47900859321452 14.4175192078757 5.09445024755394 -0.108910344081698 49.8361621209885 7.59608972399575 3.193862674701 7.70500006807745 -49.357153527774 23.6007248002379 55.2493424531903 11.3455892624796 -252.46139425315
0.0237500001862645 0.0600499968752265 0.00564999974519014 16 -0.284806893666585 -0.254078510129669 0.172659498543168 0.418905906412049 -42.1563031443574 -14.7910655415632 0.479091318310542 37.9658912364014 5.39520326450792 0.212065524001986 52.6540286973255 13.3637251379594 5.08956028991372 13.1516596139574 -52.1749373790149 52.7569567779646 75.3557345500497 46.7166480764092 118.956253718456
0.0265500002279878 0.0600499968752265 0.00564999974519014 16 -0.390699132084847 -0.120265379545599 0.321621184989939 0.520143980031906 -22.3912025545058 -18.8493288255145 0.581247149805551 53.7937941501855 4.34627880092476 0.915210228202963 42.8708219895378 17.170517208572 10.35351696064 16.255306980369 -42.2895748397322 72.6431229757001 85.6134712578227 -473.38811833486 689.196905518808
0.029350000269711 0.0600499968752265 0.00564999974519014 16 -0.415279712279638 0.0462799014116172 0.4303572763522 0.599838689995078 1.00033361373572 -20.5885853920946 0.737715004815926 55.6229149440908 2.50137652871945 1.58523006109031 27.0492598206907 19.210347446447 17.3902007035217 17.6251173853566 -26.3115448158748 76.2115003361854 82.5296003682181 -1080.40442671719 1158.18732219378
0.0321500003114343 0.0600499968752265 0.00564999974519014 16 -0.385746666590373 0.188366991960599 0.48973419341996 0.651246646556101 10.3494400656377 -20.351983965821 0.693040697427605 38.5369360601142 0.524087584315237 1.92094620449537 11.5419932544237 19.8541295573015 23.3645075135737 17.9331833528062 -10.8489525569961 58.8889200259352 62.5076294428953 -748.313030110618 997.643950435298
0.0349500003531575 0.0600499968752265 0.00564999974519014 16 -0.355805003245672 0.259037007377483 0.503572333979731 0.66879179650735 10.5293066263483 -19.7866640598938 0.593418031760947 25.2023621408994 -0.356061561845357 1.98368084745897 4.34514183832398 19.8810289628612 25.8864768591004 17.8973481154023 -3.75172380656304 44.9890262007933 48.5633913517197 -457.191459784156 716.254962880626
-0.0350500006899238 0.0572499968335032 0.00564999974519014 16 -0.0793431687355042 -0.406470079472735 0.00904649327237469 0.414240392733602 -15.2552723030528 0.852069565303655 1.59156486858721 4.10522160222244 7.53872180460594 -1.87452971476601 12.8969242745082 -1.865219384031 -8.75479105291839 0.00931033073501153 -11.305359405921 3.25315203691878 11.7641079625535 61.2253027145505 -74.969101817171
-0.0322500006482005 0.0572499968335032 0.00564999974519014 16 -0.124928486744563 -0.393696759870751 0.0475430996762589 0.415769902542068 -23.5911320306618 -3.21035193787865 1.69007029704289 7.74557128449484 9.38561234054916 -1.29962804690381 18.067867165943 2.91005379655374 -9.38588776436682 4.20968184345755 -16.3777968689001 10.9559232223735 20.1490919189087 71.3101760349699 -89.9737747815253
-0.0294500006064773 0.0572499968335032 0.00564999974519014 16 -0.219763265053431 -0.3595308767393 0.11728894148798 0.437395747340146 -36.6956095434551 -12.12428903974 1.90389448866832 20.4580116837901 12.4545915768232 -0.430730475432365 30.0391165756978 13.725020859605 -10.3783432894494 14.1557513350374 -28.1352220870295 32.58230072353 45.3164687303019 61.2634625609281 -8.68790028300708
-0.026650000564754 0.0572499968335032 0.00564999974519014 16 -0.343715041478475 -0.272533209473659 0.229874334734244 0.495233873815265 -34.2297488423864 -23.0230824399907 2.25903732617714 35.9873475890394 14.5868649341689 0.396562643112509 32.4532342119032 27.2855499740863 -10.4280491257071 26.8889873309738 -30.1941968857261 59.0104300290301 71.5327758266818 102.446528971223 449.938408353732
-0.0238500005230308 0.0572499968335032 0.00564999974519014 16 -0.425767849286397 -0.151386503572382 0.318377908562058 0.552775386219561 -16.5088719224033 -32.4547182840375 2.74998984148832 46.1480078919622 13.3706885513752 0.787184298418183 23.5067220654227 38.4782424826182 -8.59498651673759 37.6910581842001 -20.7567322239344 78.6027261759997 89.6094100078784 -1218.70101572302 1209.02553925557
-0.0210500004813075 0.0572499968335032 0.00564999974519014 16 -0.447182026306788 -0.0129494141084433 0.380089710207346 0.587032912010137 9.37807964644285 -36.9949720254296 2.9830941308503 50.738931361507 7.90742796289931 0.628227190255768 4.0115476891246 42.5568933230498 -4.63213719655287 41.928666132794 -1.0284535582743 87.7339033869366 97.243552814082 -1760.87149307747 1832.47077090978
-0.0182500004395843 0.0572499968335032 0.00564999974519014 16 -0.377394766807556 0.126348103451698 0.352623892206078 0.53172762069892 30.3253752169394 -34.6669369015861 2.52611063027077 45.8229157517039 -0.384922466495432 -0.166880495978547 -19.700899070378 38.1419173480115 0.29432003224191 38.30879784399 22.2270097006488 80.48985265329 91.8706717763224 -1084.43664843839 1641.81107845614
-0.015450000397861 0.0572499968335032 0.00564999974519014 16 -0.273471226294835 0.232164868225033 0.270896707077821 0.449524263588468 37.8957282604133 -26.125627567864 1.28145812032435 34.6461697479181 -8.52014029271755 -1.30397200837929 -34.7218998298684 28.0916350879482 4.1983303103014 29.3956070963275 36.0033579501927 60.771797315782 76.5085279510843 82.5083032867564 786.729793875746
-0.0126500003561378 0.0572499968335032 0.00564999974519014 16 -0.154482687711716 0.310810090607847 0.151079906233742 0.378540554358301 35.7355146887431 -14.0990117385658 -0.0762419231583184 16.667730897893 -13.5940129799354 -1.98942708458838 -37.543832907572 16.7043850719752 5.41276121779577 18.6938121565636 37.4675909844137 30.7667426364587 51.9602871391054 49.025952958065 -100.574113115633
-0.0098500003144145 0.0572499968335032 0.00564999974519014 16 -0.0589815537134806 0.321968705854379 0.0488795699862142 0.330956014585076 29.2459017718378 -2.15172571663848 -0.686741131103068 -1.78834744609091 -14.2962392801106 -1.77446923474634 -30.2667974352316 6.82363129169068 3.80618374968296 8.59810052643702 29.5800563041286 0.363378270547569 30.8064783346886 196.102149362928 -373.730411352765
-0.00705000027269125 0.0572499968335032 0.00564999974519014 16 0.0236315822601318 0.30297814204474 -0.0323409052945984 0.305614365487413 24.6162442104155 7.58899210745699 -0.202298374226931 -14.6088354182623 -10.9395639932627 -0.646325012866817 -23.0082382986798 -1.46361203750694 0.802063201762551 -0.817287024640125 22.8059399244529 -22.1978275257193 31.8358665781219 50.8556645655366 -153.055578471462
-0.004250000230968 0.0572499968335032 0.00564999974519014 16 0.0914911977450052 0.24585895474224 -0.0962408166239038 0.279427199241947 19.8267456914969 14.661254881947 0.930589955802188 -23.3242803095264 -5.14092073945052 0.72284325986886 -18.1654890155617 -9.65663813406038 -1.96567793032938 -10.3794813939292 19.0960789713638 -37.9855351914734 43.7640805897959 14.0767541851776 235.052745846113
-0.00145000018924474 0.0572499968335032 0.00564999974519014 16 0.143967191378276 0.17853302937001 -0.151416509009238 0.274822768288813 13.1728591829325 19.3946176526421 1.80020909734822 -28.0794638984212 0.733365633197956 1.66322441649793 -13.7385096149684 -18.3083166021788 -3.6394600092164 -19.9715410186768 15.5387187123166 -47.4740815510634 53.796864676282 -494.347932077573 558.822868509877
0.0013499998524785 0.0572499968335032 0.00564999974519014 16 0.17014329791069 0.0932921358230912 -0.188246458164504 0.270349576367044 4.50337337981317 21.9451111028729 1.87757557919403 -31.8183179586903 4.63146800384966 1.92505658238992 -7.60343518360821 -26.0582595455105 -4.21508431665383 -27.9833161279005 9.48101076280224 -53.7634290615631 61.3470606553901 -746.910204347907 745.049274059026
0.00414999989420176 0.0572499968335032 0.00564999974519014 16 0.16941512187322 0.00188077963151348 -0.202633352366587 0.264131210466808 -3.70576415779498 22.1746657287308 1.21095698473703 -30.3281806118204 5.55172764303526 1.74879929128938 -2.2878968979007 -30.4907305288443 -3.44928643001074 -32.2395298201337 3.49885388263773 -52.5028463405512 61.7104378154528 -701.113601131116 701.669329782968
0.006949999935925 0.0572499968335032 0.00564999974519014 16 0.146282587051392 -0.0774609636406725 -0.199476795278121 0.25920993039816 -8.32708889539123 20.1510051544428 0.336430766706625 -26.8274734545114 4.22650895991058 1.62990604055431 -1.02495346572529 -30.0401323112575 -1.22577109305634 -31.6700383518118 1.36138423243191 -46.9784786089542 56.672940179997 -566.12643770832 559.739831379355
0.00974999997764826 0.0572499968335032 0.00564999974519014 16 0.118318917751312 -0.149642197399808 -0.198457212126426 0.275276985208495 -9.05919700725459 16.2671351362246 -0.151339543590859 -24.8723033417425 2.48547587634102 1.66701387253173 -2.04779334302749 -25.3635678513688 1.89375464660888 -27.0305817239005 1.89645379943663 -41.139438477967 49.261570048348 -415.217790509918 411.607196406793
0.0125500000193715 0.0572499968335032 0.00564999974519014 16 0.0911535131931305 -0.216605242059644 -0.197333222256663 0.306866737300354 -10.333023267374 10.9220827883928 -0.0688620788383214 -26.2754221159458 2.1858732238457 1.60627731266571 0.794220158809905 -18.0647509248914 4.31248853180295 -19.6710282375571 -0.863082237648226 -37.1975049043386 42.0873928151888 -249.724409553707 258.332856860008
0.0153500000610948 0.0572499968335032 0.00564999974519014 16 0.0553107313315073 -0.294498556396769 -0.182143287444099 0.350663448168113 -16.1231904563778 3.68254581625963 0.42202315950502 -24.0013380689922 4.2763339389296 1.14696691555603 11.4239942982041 -8.4900076733885 4.65229698190362 -9.63697458894453 -11.0019711386991 -27.6838838852518 31.3099357255303 18.9010526945697 -30.7606465367058
0.018150000102818 0.0572499968335032 0.00564999974519014 16 -0.00824050347010297 -0.346945464973008 -0.121377303809216 0.367656784845285 -28.5585279504488 -5.97105736979022 0.844765042804489 -10.1321173397589 7.75813697622064 0.504287735492381 27.8230451073825 3.53271403501 3.44759850177229 3.02842629951762 -26.978280064578 -4.16105996996863 27.4647661771967 85.7434576245342 -379.057262602927
0.0209500001445413 0.0572499968335032 0.00564999974519014 16 -0.120018037557602 -0.34684943520076 -0.0102739639383253 0.36717082451261 -38.4320123544011 -17.5744897033267 0.968091441527774 13.2639502695983 10.543264746699 0.0832747981846056 41.8365759476883 16.9919940869072 2.71029446877038 16.9087192887226 -40.8684845061605 30.838439972925 53.9179672630451 20.9594720672387 -289.595077940577
0.0237500001862645 0.0572499968335032 0.00564999974519014 16 -0.241308470964432 -0.27096138372086 0.133432216344712 0.386592816779848 -36.4252979628165 -28.6210491713725 0.885356927313619 39.1111310368182 10.4513428789082 0.0715721206450244 47.0316724211051 28.69139139844 4.81569103074442 28.619819277795 -46.1463154937914 67.7321802081907 86.8114319943002 100.63796963056 569.932462838626
0.0265500002279878 0.0572499968335032 0.00564999974519014 16 -0.337476596434911 -0.131550719168348 0.274712207274254 0.454601849622826 -19.5344124626385 -35.856090016797 0.763562993254809 56.3052464353451 7.14429228119286 0.39661714657122 40.1491729291526 35.7664660448413 10.0748675895056 35.3698488982701 -39.3856099358978 92.1613364521421 106.282474650123 -1905.30413385691 1709.65559581895
0.029350000269711 0.0572499968335032 0.00564999974519014 16 -0.355354697306951 0.0364940223641073 0.375360106914498 0.518173701020507 1.02603516180359 -38.1588294678722 0.689587753988919 58.5344265319695 2.33629583222307 0.830871350081085 26.2869961267658 38.5704353865264 16.8040858175681 37.7395640364453 -25.5974083727769 96.6932559998417 106.90691167981 -2183.13685960561 2242.32895993506
0.0321500003114343 0.0572499968335032 0.00564999974519014 16 -0.330003827412923 0.188717271067047 0.434630995236609 0.577426044205262 9.21172561618572 -37.1256837085793 0.486976921042874 40.5632264940938 -1.94240987483378 1.16398782418113 11.6455252860555 39.014573011868 22.3725128490438 37.8505851876868 -11.1585483650127 77.688910202673 87.136368808573 -1465.89541735477 1599.59384004603
0.0349500003531575 0.0572499968335032 0.00564999974519014 16 -0.301505966981252 0.259092618489328 0.448030485429529 0.598970908271158 9.92795979327115 -35.9759602834106 0.353477452418862 25.5879199180707 -3.80383651915027 1.26532277121476 4.07278231181966 38.992861020551 24.6594128261915 37.7275382493363 -3.71930485940079 61.5638802014813 72.3001501827945 -823.995824464002 983.024747020382
-0.0350500006899238 0.05444999679178 0.00564999974519014 16 -0.094538801908493 -0.427162034932214 0.0313171748925621 0.438618005326929 -10.2593482258918 1.04866015231509 0.704860440226253 1.42732719755285 2.31807982815775 -1.43608129258468 7.86394721420269 0.497263025658964 -6.08705215635639 1.93334431824364 -7.15908677397643 0.378667045237766 7.42520925101498 5.34358572288787 18.231270429081
-0.0322500006482005 0.05444999679178 0.00564999974519014 16 -0.125112934907277 -0.421959477735012 0.0535373210712957 0.443361356095689 -14.2340968710685 -5.91126152981616 0.784555615785806 4.4362615374376 4.67313050749496 -0.823297529431623 8.15825123856712 7.30926479255194 -6.60666867974735 8.13256232198356 -7.37369562278132 10.3475230672538 15.0857943339328 26.2037665746313 22.4893446714287
-0.0294500006064773 0.05444999679178 0.00564999974519014 16 -0.178339885075887 -0.400139030909437 0.0748636724908526 0.444433266222098 -22.0019320620616 -21.0480370689417 1.10463175518367 16.2924680077998 9.07900469426834 0.11308467833085 13.9159436256401 22.5270866069343 -7.29418589553772 22.4140019286034 -12.8113118704564 37.3405050767415 45.3963711510479 78.4518690080516 219.511599058599
-0.026650000564754 0.05444999679178 0.00564999974519014 16 -0.255443037350972 -0.328504579314419 0.129964712544655 0.43595553726091 -19.1920561664872 -39.8806138259838 1.70183949120087 33.9212443422761 13.1783782596761 0.891623009162639 15.7250982554567 41.8178663989573 -6.86180955001926 40.9262433897946 -14.0232587642558 73.8018581682599 85.5472001497298 -1032.3176683534 1077.09721777038
-0.0238500005230308 0.05444999679178 0.00564999974519014 16 -0.292106180588404 -0.208147352611025 0.164004964059762 0.394396969274826 -5.93689658835188 -56.0586459918876 2.48070194991235 48.779513643441 13.8291521377543 0.999767005235924 12.8521694388533 58.0078624734412 -4.58771300393417 57.0080954682053 -10.3714674889409 104.838159635329 119.785349698988 -2480.8140809507 2526.32708870054
-0.0210500004813075 0.05444999679178 0.00564999974519014 16 -0.290439924399058 -0.0524735791226461 0.20662741490795 0.360282826099737 10.7838668983173 -63.4961548364214 2.97731930122226 57.8151079281535 9.58473040810486 0.38690181710537 4.35836228459317 64.2369496641105 -0.799676323246647 63.8500478470051 -1.38104298337091 121.311262764575 137.095435238824 -3562.15894154116 3720.27958816203
-0.0182500004395843 0.05444999679178 0.00564999974519014 16 -0.228716605901718 0.12199098787775 0.19557971903123 0.32472220964222 22.2950388208298 -59.1996408160297 2.66641372655498 54.7172985298011 1.90652149275587 -0.768884110541788 -9.36785050995672 57.9720624832589 3.07957508092577 58.7409465938007 12.0342642365117 113.916939345831 128.733800504652 -3206.70997163701 3425.83327502945
-0.015450000397861 0.05444999679178 0.00564999974519014 16 -0.160518695116043 0.261333880568078 0.158162469516877 0.345075376371895 23.151772017857 -44.9666575110858 1.47139582186988 41.6872455995803 -5.89371931078156 -1.91437441251167 -19.7912967326649 42.7586930856975 5.31067147924645 44.6730674982092 21.2626925545348 86.6539031106662 99.783184849357 -1595.08678975002 1940.71487721272
-0.0126500003561378 0.05444999679178 0.00564999974519014 16 -0.0961023330688477 0.361941267801758 0.0817335561684013 0.383298205009041 19.1685000919123 -25.682302500997 0.00593366003845203 19.5164604422985 -10.7096520196315 -2.31171270778847 -23.2503771725925 24.9218842694875 4.99974555930099 27.233596977276 23.256310832631 45.1987629432955 57.6667405830161 -134.126190932156 395.9819595931
-0.0098500003144145 0.05444999679178 0.00564999974519014 16 -0.0510549831390381 0.374135853724244 0.0172176259554302 0.377995628266832 14.7452144268135 -6.56188658106921 -0.945738830835676 -3.35430252700542 -11.2902001829474 -1.85645566688064 -18.8394374989472 9.08182237850825 2.69005984226948 10.9382780453889 17.8936986681116 3.20758405406379 21.2160074963999 134.275671542642 -180.149967261789
-0.00705000027269125 0.05444999679178 0.00564999974519014 16 -0.00972917397816975 0.344016269863108 -0.0359873945572569 0.346030263595316 13.3835900886744 9.43073706160072 -0.975668495617427 -19.7493901580637 -7.94036564907932 -0.840564650276972 -13.114182711394 -3.95234981586437 -0.104659538634089 -3.1117851655874 12.1385142157765 -29.1801272196645 31.7569922826325 -32.0418221806442 63.2937208896435
-0.004250000230968 0.05444999679178 0.00564999974519014 16 0.0302344973882038 0.262952412751426 -0.0629013808946668 0.272056391070986 12.0309535868229 21.3869205135258 -0.320625424574444 -29.7133758552489 -2.20935861736753 0.156908457428703 -7.86845021917353 -15.9504181029849 -1.97121661933148 -16.1073265604136 7.54782479459908 -51.1002963687747 54.1078175223357 -552.32995344815 589.516355698013
-0.00145000018924474 0.05444999679178 0.00564999974519014 16 0.0636984936396281 0.175173510776561 -0.0790606558066793 0.202469366241725 8.46038621971429 29.161822810723 0.386522003854343 -33.2479640523589 3.47395070964417 0.848308282706945 -3.55037806675723 -27.7839099794658 -2.54882502389272 -28.6322182621727 3.93690007061157 -62.4097868630819 68.7770644988138 -986.177732558387 993.485284821271
0.0013499998524785 0.05444999679178 0.00564999974519014 16 0.0804104550679525 0.073664398805995 -0.0782228923975102 0.134205461255183 3.10042696923327 32.7267487342903 0.712989561633861 -34.0593965534414 6.98542708768133 1.1919251908829 0.232866528560063 -38.0584002965135 -2.32401873073574 -39.2503254873964 0.480123033073798 -66.7861452877318 77.4674626626396 -1115.83080269676 1158.06814047056
0.00414999989420176 0.05444999679178 0.00564999974519014 16 0.0802942097187043 -0.0185608794850608 -0.074622831583741 0.111176586362352 -2.1784232693436 32.3727996305609 0.580098311686761 -29.4417919858954 7.4198574173219 1.35696785284581 0.327567562456329 -44.0776954857051 -1.52065371335075 -45.4346633385509 0.252530749230432 -61.8145916164563 76.7164659064535 -959.325320370071 988.601230782217
0.006949999935925 0.05444999679178 0.00564999974519014 16 0.0655030115445454 -0.0917355434899218 -0.0756440740715091 0.135750065940802 -4.40834689643509 28.9503773174414 0.261246400229862 -24.6342832688659 5.6654972888761 1.59541361807184 -4.15024864306492 -44.0184629863092 -0.12261615799745 -45.6138766043811 4.41149504329479 -53.5846605863073 70.5081759624122 -749.589260652459 759.354064050086
0.00974999997764826 0.05444999679178 0.00564999974519014 16 0.053481084505717 -0.15590865402172 -0.0981756335826746 0.191849393608976 -3.56573098835465 23.4220393178036 0.133891277503599 -23.0356651488677 3.37670199392548 1.88832743946497 -9.21340385072076 -38.4041217611651 1.7244915577223 -40.29244920063 9.34729512822436 -46.4577044666713 62.2026662861975 -596.80433873509 600.929016307192
0.0125500000193715 0.05444999679178 0.00564999974519014 16 0.0448526108264924 -0.222149654494909 -0.125504897061231 0.259063129133635 -3.11723391182229 16.0578362911836 0.397287179073396 -26.4287698614642 1.99301419906448 2.0346760152968 -9.20374273611612 -28.5393652850231 3.05105849855189 -30.5740413003199 9.60102991518951 -42.4866061526478 53.2171352032054 -476.769366767908 476.470999281622
0.0153500000610948 0.05444999679178 0.00564999974519014 16 0.0360464092095694 -0.310870851163442 -0.147556678464365 0.345995669162813 -5.74131045391102 5.69970390529826 1.07460608435052 -26.3706737428615 2.42523690336831 1.71722237966803 -2.13416361517975 -14.5579877282162 2.91529909107983 -16.2752101078842 3.20876969953027 -32.0703776481598 36.106616977169 -149.625769166706 154.006335458861
0.018150000102818 0.05444999679178 0.00564999974519014 16 0.0136389907201131 -0.381710063479065 -0.137700988316986 0.406017434123868 -14.583812265221 -9.00328859634645 1.74981246622825 -13.1815131531874 4.36216535337515 1.05099485608621 11.0651779277157 3.73531565643595 1.82419574321863 2.68432080034974 -9.31536546148741 -4.17822455684096 10.5564753723793 85.3325886601539 -224.228036243154
0.0209500001445413 0.05444999679178 0.00564999974519014 16 -0.0464010159174602 -0.394981347553742 -0.0871079338908506 0.40712542458102 -22.3087125104928 -27.497871791946 2.03905337600472 11.3657432879324 6.52464037799129 0.270356693738125 24.2719155655972 24.5985631662966 1.45153238062135 24.3282064725585 -22.2328621895924 38.8636150798784 50.9562789888528 12.9823514451066 87.9242159419059
0.0237500001862645 0.05444999679178 0.00564999974519014 16 -0.114205911954244 -0.321674504143302 8.74271053666331E-06 0.341346564385193 -23.282804909723 -45.7171052209021 1.77490705906418 40.6455809841617 6.98031928010442 -0.424356566009839 33.8431868818663 43.6523117760936 3.74487056440387 44.0766683421035 -32.0682798228022 86.3626862050638 102.12561300422 -1357.82373282627 1593.08182587624