TITLE="DynamicStudio Exported Data"
VARIABLES= "X (m)[m]" "Y (m)[m]" "Z (m)[m]" "Status[-]" "U[m/s]" "V[m/s]" "W[m/s]" "Length[m/s]" "dU/dX[1/s]" "dU/dY[1/s]" "dU/dZ[1/s]" "dV/dX[1/s]" "dV/dY[1/s]" "dV/dZ[1/s]" "dW/dX[1/s]" "dW/dY[1/s]" "dW/dZ[1/s]" "Vorticity X[1/s]" "Vorticity Y[1/s]" "Vorticity Z[1/s]" "Vorticity Magnitude[1/s]" "Lambda-2[1/s²]" "Q-Criterion[1/s²]"
ZONE T="DynamicStudio Data" I=26 J=26 F=POINT
-0.0350500006899238 0.0600499968752265 0.00564999974519014 16 0.155750264128049 0.227813755452711 -0.237005507431459 0.363770343076876 3.94129113349144 8.22051403591266 -0.46682574696721 -5.9877312943626 -8.41386441781626 1.78100222568435 1.4793632197568 -18.0793065834707 0.415720029675307 -19.8603088091551 -1.94618896672401 -14.2082453302753 24.4968110752091 -24.7219389825645 47.0912917258482
-0.0322500006482005 0.0600499968752265 0.00564999974519014 16 0.169535428484281 0.212487077231829 -0.23647580317532 0.360296856757434 6.13065456912837 9.60007947829862 0.123179997773306 -10.1701735748558 -7.14219123051497 1.80389528977697 1.98172479574702 -17.8174768575842 -2.15188995739184 -19.6213721473612 -1.85854479797371 -19.7702530531544 27.9162200073197 -72.0515492619668 87.9216366321132
-0.0294500006064773 0.0600499968752265 0.00564999974519014 16 0.195904778639475 0.174842510391609 -0.232829974141593 0.350939286191496 7.57745106761588 11.6462168337069 1.13334805449774 -18.401583813645 -4.47715670859653 1.66647014899105 3.34238713323072 -16.7148196933491 -5.71185912708742 -18.3812898423402 -2.20903907873298 -30.047800647352 35.2933703925042 -185.793170838167 186.74161477459
-0.026650000564754 0.0600499968752265 0.00564999974519014 16 0.217777992089589 0.115094939579333 -0.220911629162729 0.330871647100012 3.82879492122957 12.8389690700847 2.10331021260921 -25.4611347155593 -1.36441032262085 1.23110812626612 5.33416993077051 -14.8984889419356 -7.40745411007574 -16.1295970682017 -3.2308597181613 -38.300103785644 41.6833336729691 -310.244536876664 310.53809467915
-0.0238500005230308 0.0600499968752265 0.00564999974519014 16 0.219511984189351 0.0368318698349564 -0.199819257246175 0.299115083880266 -2.73327381076409 12.4765684240338 2.78423932918316 -30.6722861546767 1.00270544384973 0.544395717636185 8.10806609470118 -13.3770590746953 -6.83084342427543 -13.9214547923314 -5.32382676551802 -43.1488545787104 45.6505606364136 -382.592606564831 376.473067120525
-0.0210500004813075 0.0600499968752265 0.00564999974519014 16 0.201248294909795 -0.0547977847895769 -0.17095385736941 0.269682952318877 -9.58503729045294 10.8854081337933 2.93714785267431 -33.1122643921005 2.30282806899522 -0.21328996954605 14.2015760975588 -12.6812779567525 -5.17268738039668 -12.4679879872065 -11.2644282448845 -43.9976725258937 47.0970620721618 -231.353400277071 331.619492839769
-0.0182500004395843 0.0600499968752265 0.00564999974519014 16 0.161458611885707 -0.14841098422301 -0.116073400499687 0.248128470542303 -14.017983384123 8.59721177825275 2.57234333004801 -33.5652470653814 3.23861499337472 -0.916121689442468 21.959474101382 -11.7933103885956 -3.57203429408249 -10.8771886991531 -19.387130771334 -42.1624588436342 47.6638962872627 7.87222950027902 214.381545632692
-0.015450000397861 0.0600499968752265 0.00564999974519014 16 0.117086120446523 -0.242171608584079 -0.0427098398966094 0.27236074979595 -18.4434318916343 5.51789790921087 2.14454818218792 -31.6997281332308 4.63767569741968 -1.52435359657302 28.8984551764107 -9.05736717106118 -2.82415588086872 -7.53301357448816 -26.7539069942228 -37.2176260424417 46.4507214282403 20.4634938380938 52.5900555344904
-0.0126500003561378 0.0600499968752265 0.00564999974519014 16 0.0507188081741332 -0.323742961594811 0.0540583939861972 0.332120780206765 -25.5013371255227 0.995820663103805 2.05468048665143 -25.7885883639399 6.58503363193271 -1.99159897122768 36.4856755060227 -3.72354668982112 -2.8659279791015 -1.73194771859344 -34.4309950193713 -26.7844090270437 43.6565874508292 21.0873667300952 -170.415807283563
-0.0098500003144145 0.0600499968752265 0.00564999974519014 16 -0.0355746674537658 -0.383432278661057 0.173994728349692 0.422563645829998 -33.9295671799283 -5.00902217400253 2.45982788030846 -12.1559924311039 8.39829378552555 -2.02335524065851 37.6837063470714 2.63925277137173 -3.59531635925777 4.66260801203024 -35.2238784667629 -7.14697025710137 36.2428022036242 98.1109551685583 -341.402389499096
-0.00705000027269125 0.0600499968752265 0.00564999974519014 16 -0.150591713587443 -0.388440338883471 0.274422316044996 0.498870091924349 -38.8093652126831 -11.5886981217426 2.90575276219125 6.88156514168772 9.08364768513592 -1.50074115038416 34.0290273063018 7.8996405339464 -4.3326168184087 9.40038168433055 -31.1232745441106 18.4702632634303 37.392191954733 49.734544960832 -231.016700211972
-0.004250000230968 0.0600499968752265 0.00564999974519014 16 -0.264876537322998 -0.343793289992658 0.372049825064217 0.571641914662065 -32.2971364332129 -17.1404170540954 2.96724276955726 27.1697860066033 7.70612566495457 -0.636392466389347 19.6176888406719 11.582134749368 -4.27535882938677 12.2185272157574 -16.6504460711146 44.3102030606986 48.8868474844681 20.1075037027051 271.111404394098
-0.00145000018924474 0.0600499968752265 0.00564999974519014 16 -0.340157070954641 -0.23923570713882 0.390099227846367 0.570191164485196 -13.2737374093848 -20.0471680048506 2.61545559367166 42.0651339048039 3.95843135249492 0.0692692907669405 -1.2203077743864 13.9586900594428 -3.91228389649468 13.8894207686758 3.83576336805806 62.1123019096545 63.7617999935787 -693.436139589291 829.412502321405
0.0013499998524785 0.0600499968752265 0.00564999974519014 16 -0.342382090091705 -0.116369788499821 0.368854398499243 0.51654718137194 12.690172979248 -19.1098517950753 2.13759804418431 49.8434333874078 -1.35331703116247 0.159962047962757 -20.8955156317409 14.8883968118668 -3.92904093162377 14.7284347639041 23.0331136759252 68.9532851824831 74.1755124934066 -850.927422120794 933.068461615629
0.00414999989420176 0.0600499968752265 0.00564999974519014 16 -0.263483369350433 0.029009690360593 0.272430510345924 0.380109761814157 34.9220795054069 -14.3156674050416 1.87350369208609 49.6665321339182 -6.27679206301598 -0.160915468250301 -35.9963425151622 13.0212550562266 -4.77354329697452 13.1821705244769 37.8698462072483 63.9821995389599 75.5090506452061 30.1021051745584 424.606005825233
0.006949999935925 0.0600499968752265 0.00564999974519014 16 -0.134641499916712 0.153518481574332 0.157446097237989 0.257847883877655 44.0331364023099 -7.62706073018651 1.76791158191305 39.8962429435975 -8.87465121295977 -0.416217457818939 -39.5981854813919 8.4004226100653 -5.70009429750853 8.81664006788424 41.3660970633049 47.523303673784 63.6187984829019 8.51816441009697 -213.391847204283
0.00974999997764826 0.0600499968752265 0.00564999974519014 16 -0.00394500891367588 0.250243277692546 0.0393803705608783 0.253353655413041 39.0401314428728 -1.61175257120329 1.81483957163519 24.393551957205 -8.47647561349251 -0.125907193944671 -34.3030722606913 3.33417070819372 -5.48234375410274 3.46007790213839 36.1179118323265 26.0053045284083 44.6402459427794 37.8160762873795 -396.492450628631
0.0125500000193715 0.0600499968752265 0.00564999974519014 16 0.0936868345737458 0.294784384204391 -0.0413559924958584 0.312066297857567 25.4473552652176 2.30321646562112 2.03962624581646 5.035518345389 -6.08978530140348 0.526590042913374 -22.9423035330006 -0.250753995166095 -4.08653894794688 -0.777344038079469 24.9819297788171 2.73230187976788 25.1429225188614 41.2571914278105 -198.746513432014
0.0153500000610948 0.0600499968752265 0.00564999974519014 16 0.143893161217372 0.284794044838442 -0.0898180856753606 0.331481791860361 13.5095666835147 4.49386042543036 2.42303435938437 -11.0814972763303 -3.40860855298534 0.963658680589916 -15.9397550470046 -2.3984729630996 -2.72759579072856 -3.36213164368952 18.362789406389 -15.5753577017607 24.3122958913938 6.92155018719028 17.1324300910175
0.018150000102818 0.0600499968752265 0.00564999974519014 16 0.173054456512133 0.237621020292863 -0.131952007267973 0.322215652049646 8.89646776915918 6.14693425305853 2.90258249288923 -23.4843818032104 -1.46112377023012 0.814621807627419 -18.9435174940771 -4.87790633360691 -2.90168177091446 -5.69252814123433 21.8460999869664 -29.631316056269 37.2514677899513 -102.357601192208 168.741879354253
0.0209500001445413 0.0600499968752265 0.00564999974519014 16 0.197544622818629 0.15478187539964 -0.203972180696049 0.323397522338508 7.98411520629665 7.76227403632627 3.17568943375907 -29.3529247045334 -0.365161285636681 0.154652831889731 -25.7587635949884 -8.5710563246609 -4.81991574111227 -8.72570915655063 28.9344530287475 -37.1151987408597 47.8631230691335 -256.411472684747 271.334611126037
0.0237500001862645 0.0600499968752265 0.00564999974519014 16 0.220770908991496 0.0732125016806337 -0.289037133663272 0.371001791499109 5.91135338680091 9.2261254595277 3.12108844598404 -29.6277534377801 0.32267743810843 -0.496221415276238 -26.7395442597562 -12.7439906752534 -7.34692074519421 -12.2477692599771 29.8606327057402 -38.8538788973078 50.5102874947215 -317.870085214445 306.588541824675
0.0265500002279878 0.0600499968752265 0.00564999974519014 16 0.232906834483147 -0.0109441466604767 -0.366155917003622 0.434091607211945 -0.709443311993657 10.1917708577425 2.59448269448288 -26.3316871722445 0.882868922775565 -0.785877592559115 -17.1841958600632 -15.4838090715034 -8.45310405006242 -14.6979314789443 19.7786785545461 -36.523458029987 44.0589185249936 -262.245925260905 298.689911952538
0.029350000269711 0.0600499968752265 0.00564999974519014 16 0.216263208786647 -0.0733515752886888 -0.387248993961063 0.449568695969686 -6.14301331609097 10.6171704665815 1.61000768073246 -20.7520540356242 1.50144709369942 -0.686788701951328 -5.8586559514524 -15.8833222093535 -7.23111130304294 -15.1965335074022 7.46866363218486 -31.3692245022057 35.6474937823419 -205.811654091509 243.19236255026
0.0321500003114343 0.0600499968752265 0.00564999974519014 16 0.197010091145833 -0.12528342238705 -0.393629679346535 0.457660612682321 -6.37261202849223 10.7784004015016 0.622767531863676 -12.9980343646705 2.15501632652708 -0.453608345254289 0.327721583299563 -14.9566193831026 -4.79596238290045 -14.5030110378483 0.295045948564113 -23.7764347661721 27.8521674464619 -126.293553166417 139.603824453243
0.0349500003531575 0.0600499968752265 0.00564999974519014 16 0.179036772648493 -0.144573698951863 -0.377715807032461 0.442295095237552 -5.90702398457007 10.7460891419136 -0.00607223098021438 -7.32085916904177 2.56299545356688 -0.258013147552573 3.69999489141795 -13.965068338936 -2.88677209042483 -13.7070551913834 -3.70606712239816 -18.0669483109553 22.9789668350447 -49.6365211909965 69.6036738279295
-0.0350500006899238 0.0572499968335032 0.00564999974519014 16 0.134670407772064 0.253072093674467 -0.187761710782458 0.342689456158528 2.48705400439377 16.7219550118836 -0.88827924454932 -7.23686536845324 -10.7532051464639 2.14424731977615 1.03537817574268 -29.9881147022197 -0.241365525534458 -32.1323620219959 -1.923657420292 -23.9588203803369 40.1274746402074 -74.5620717860908 161.487538632452
-0.0322500006482005 0.0572499968335032 0.00564999974519014 16 0.142466651995977 0.233892763921516 -0.186017164434306 0.331066394262493 4.40542110374013 18.4720790395091 -0.390568165763561 -12.0694703699444 -8.86142138911211 2.10258274095985 1.04075869472808 -28.9864301618249 -2.4468746120061 -31.0890129027847 -1.43132686049164 -30.5415494094535 43.6046059514494 -197.372948719375 256.16604680596
-0.0294500006064773 0.0572499968335032 0.00564999974519014 16 0.162457956870397 0.188102562563145 -0.185161901667404 0.309935624964951 5.85177826830271 21.2409395190744 0.553194717908841 -21.1992675840795 -5.05278566422841 1.84191826079858 1.77970585303601 -26.8503351686896 -5.46339882024889 -28.6922534294882 -1.22651113512716 -42.4402071031539 51.2437402556172 -455.870117778982 464.830962785738
-0.026650000564754 0.0572499968335032 0.00564999974519014 16 0.179495007197062 0.118044367580842 -0.178522961709338 0.279326651402454 3.46182425270597 22.9359989081186 1.58451232649406 -27.9088096478586 -0.845009090153158 1.28120261891633 3.91026623150551 -24.4691937730344 -6.75851350570053 -25.7503963919507 -2.32575390501145 -50.8448085559772 57.041095735121 -646.928743016381 644.659504131178
-0.0238500005230308 0.0572499968335032 0.00564999974519014 16 0.184218575159709 0.0329867783237326 -0.163030389453537 0.248200561770968 -1.70923397945938 22.3997299606878 2.3992484432713 -31.9333751542509 2.07471625289685 0.527665175852772 7.66681267679261 -23.111179944941 -5.93794586878658 -23.6388451207937 -5.26756423352131 -54.3331051149387 59.4863727506572 -701.710441916948 703.382967165862
-0.0210500004813075 0.0572499968335032 0.00564999974519014 16 0.16961053331693 -0.0617657820922614 -0.134303842930434 0.224989482143954 -7.69417515710869 20.0152147594523 2.68587450973807 -33.6093834088114 3.3995500608002 -0.214714772005318 14.3416615609939 -23.0419390297818 -4.14134958187953 -22.8272242577764 -11.6557870512558 -53.6245981682637 59.435150103342 -634.002341543643 620.860489184601
-0.0182500004395843 0.0572499968335032 0.00564999974519014 16 0.138034133911133 -0.156998460125954 -0.0812834229289243 0.224296530177263 -11.6117745740684 16.480875934567 2.42220696355167 -34.2172925637281 4.2367856010646 -0.838968611185351 21.0299761285919 -22.5485157098124 -2.57399288484225 -21.7095470986271 -18.6077691650402 -50.698168498295 58.2053072976034 -459.805634503888 463.86107185231
-0.015450000397861 0.0572499968335032 0.00564999974519014 16 0.0996095041433971 -0.254601112495487 -0.0145975906650225 0.273782522182948 -14.8571294248106 11.5148026140359 2.06394469216975 -33.0936988879881 5.8164482861535 -1.33483686958014 25.440135745448 -19.0726793785711 -2.09733355327019 -17.737842508991 -23.3761910532783 -44.608501502024 53.3947166982765 -128.831372855615 235.647060603852
-0.0126500003561378 0.0572499968335032 0.00564999974519014 16 0.0476960289478301 -0.342015324526583 0.0650481638397711 0.351398145993034 -20.0701562624082 4.00467836613344 2.0842694233786 -27.5251969983374 8.29790836380385 -1.69547008597554 30.2285188491028 -11.1351434511018 -2.62627365069539 -9.43967336512623 -28.1442494257242 -31.5298753644708 43.3051873275791 9.34886205925958 -107.277292279924
-0.0098500003144145 0.0572499968335032 0.00564999974519014 16 -0.0225298563639322 -0.407435833015479 0.163383661427846 0.439551786794646 -27.0406101304485 -6.31384526742538 2.66276045859004 -13.3694867351437 10.6435912510435 -1.64470340574596 30.874898697749 -0.190112298590442 -3.76554250968893 1.45459110715551 -28.212138239159 -7.05564146771829 29.1173943860954 174.092407618689 -393.003538095645
-0.00705000027269125 0.0572499968335032 0.00564999974519014 16 -0.116123547554016 -0.415089146354003 0.250806414856731 0.498685808351021 -31.8558279467676 -17.9631142669073 3.31881403235091 7.18966651161365 11.3205328852872 -1.06442298482839 28.145127517059 10.7491325524498 -4.62767531143072 11.8135555372782 -24.8263134847081 25.152780778521 37.263498447753 55.7775025356836 -218.412289191528
-0.004250000230968 0.0572499968335032 0.00564999974519014 16 -0.214505220254262 -0.367002335831833 0.3373035509279 0.542657248630221 -27.3542876226277 -28.0089273659571 3.47687373344787 29.6674573994009 8.97393412929076 -0.192652139179489 15.5293129220739 19.4939101884834 -4.46286192522707 19.6865623276629 -12.052439188626 57.676384765358 62.123967889037 -29.7843296125047 617.269147232472
-0.00145000018924474 0.0572499968335032 0.00564999974519014 16 -0.280314286549886 -0.251466471143067 0.351328642510537 0.51501776707354 -11.6653024121613 -33.5912941901808 3.00406324857379 46.5239587543868 3.26666932439682 0.397899650111687 -3.05473985962566 24.6245330889625 -3.8404419124376 24.2266334388508 6.05880310819944 80.1152529445675 83.9171771287405 -1521.59481895964 1556.32630102425
0.0013499998524785 0.0572499968335032 0.00564999974519014 16 -0.285703369379044 -0.112831193875948 0.324960798629472 0.447165309736695 10.2552498980929 -33.0772448428409 2.23247067603194 54.839125549576 -4.41726489280177 0.2239210971767 -20.2598197968602 25.513367088513 -3.58105692225573 25.2894459913363 22.4922904728922 87.9163703924169 94.2058776947718 -1835.03181972282 1787.23734326069
0.00414999989420176 0.0572499968335032 0.00564999974519014 16 -0.2226083223025 0.0481043013297797 0.233666165384154 0.326294906196978 29.3215025222834 -26.6398062419069 1.62630555945322 52.8414377459954 -10.946704323096 -0.42522319650899 -32.123335459107 21.6270447827906 -4.11732291268912 22.0522679792995 33.7496410185602 79.4812439879023 89.1213158440616 -631.482641291065 1072.49554719411
0.006949999935925 0.0572499968335032 0.00564999974519014 16 -0.115309920310974 0.17950431593849 0.135535655536126 0.252760936626441 37.2778486227458 -16.5134770375043 1.28651814658238 40.162338605434 -13.5217525470285 -0.944238573716809 -34.2343312365097 13.9304609639069 -4.79739171026501 14.8746995376237 35.520849383092 56.6758156429383 68.5210588507155 15.4415450351401 102.387480352705
0.00974999997764826 0.0572499968335032 0.00564999974519014 16 -0.00229465723037725 0.275320338100719 0.0316427299430749 0.277142231321662 33.1160236655461 -5.83918420027441 1.249079547304 22.157156006033 -11.6841774575154 -0.728882931542827 -29.2189055282055 5.17119062049602 -4.67685708537577 5.90007355203884 30.4679850755095 27.9963402063075 41.7959812353801 53.5811779488291 -317.521533843865
0.0125500000193715 0.0572499968335032 0.00564999974519014 16 0.0847995388507843 0.310609344675128 -0.0378387924299265 0.324192691159707 21.3502810954414 2.8770080678871 1.53761612000215 2.28747669389245 -7.49530329220986 0.0701937948089917 -19.3286201649294 -2.33168457894103 -3.71956961852621 -2.40187837375002 20.8662362849316 -0.589531373994652 21.0122912520698 59.6287877237574 -188.258807858068
0.0153500000610948 0.0572499968335032 0.00564999974519014 16 0.131170277992884 0.294298327424719 -0.0850710437536084 0.333248000502697 10.8043196848999 8.94911458300829 2.08507787344951 -13.1307466710415 -3.59173782880821 0.784001908729324 -13.1620934260375 -8.00712324533481 -2.86249594940817 -8.79112515406413 15.247171299487 -22.0798612540497 28.2361539007777 -38.3852436041209 91.7778761236543
0.018150000102818 0.0572499968335032 0.00564999974519014 16 0.155693488915761 0.240179270143951 -0.119534507006695 0.310185497183503 6.8490696966905 13.1507350448823 2.72264926229514 -24.5141478072899 -1.16188402426934 0.900603070603897 -15.7038002281779 -13.1980243420321 -3.30866039295687 -14.098627412636 18.426449490473 -37.6648828521722 44.2374133060822 -365.884833234654 350.246393376147
0.0209500001445413 0.0572499968335032 0.00564999974519014 16 0.176030484437943 0.156703478465012 -0.181863860021203 0.297686370524925 6.50810454513568 16.1356971840894 3.08527500161757 -29.7830331122331 -0.0673304406879783 0.40905392454465 -22.2188162567358 -18.746638949166 -5.21398878967761 -19.1556928737107 25.3040912583534 -45.9187302963225 55.8190594323248 -547.71127977308 522.769230594817
0.0237500001862645 0.0572499968335032 0.00564999974519014 16 0.19475005030632 0.0715570800099522 -0.252745802180531 0.326999141151388 4.9583943265348 18.076716431116 3.01632672222394 -30.0397274782265 0.545472432876388 -0.194754533281931 -23.6526972212734 -23.9824552090373 -7.55435761581187 -23.7877006757553 26.6690239434973 -48.1164439093425 59.9356631398958 -581.616495893254 570.819695747996
0.0265500002279878 0.0572499968335032 0.00564999974519014 16 0.203648939530055 -0.0125704492892449 -0.320388881011192 0.379841995891256 -0.950919166229089 18.9492695462126 2.43686225536741 -26.8122171106852 1.25124591687445 -0.523425102264735 -16.2893184078061 -27.0509069010271 -8.61381329428152 -26.5274817987624 18.7261806631736 -45.7614866568979 56.1114141139121 -502.138978315344 529.830838363211
0.029350000269711 0.0572499968335032 0.00564999974519014 16 0.186916678349177 -0.0779515596680964 -0.343737686187766 0.398961009630638 -6.09738146522332 19.0033136799674 1.44219749808585 -21.4331881695307 2.20671726558043 -0.524169049041827 -6.62153485414746 -27.0497344046391 -7.63711797883113 -26.5255653555973 8.06373235223332 -40.4365018494981 49.0279520142029 -387.773793898164 418.930789942334
0.0321500003114343 0.0572499968335032 0.00564999974519014 16 0.166143805185954 -0.131152172707176 -0.351459348953989 0.410278357185269 -6.26604642310765 18.7973729120752 0.474720716143566 -13.4853235867107 3.15728421058463 -0.420560222967972 -0.955910412603872 -25.3121244481243 -5.63136968823651 -24.8915642251563 1.43063112874744 -32.2826964987859 40.7898169674043 -226.921436593212 241.020073930418
0.0349500003531575 0.0572499968335032 0.00564999974519014 16 0.149348572889964 -0.15263691101068 -0.342432097873922 0.403562590537684 -5.59702054313908 18.5982432460763 -0.115476274945658 -7.82230438154834 3.67572879444709 -0.31402999281383 2.01696082346353 -23.7979981109583 -4.12215575342339 -23.4839681181444 -2.13243709840919 -26.4205476276246 35.4131244526133 -116.445648285547 125.587479842069
-0.0350500006899238 0.05444999679178 0.00564999974519014 16 0.0649226963520051 0.293017135437888 -0.0695446725081031 0.308075412255019 -0.0819794584917951 27.3777982092405 -1.71243072788792 -9.55061664325679 -9.45016733736144 2.63329582714317 -0.347714946689945 -42.8890852797376 -1.13150920245248 -45.5223811068808 -1.36471578119798 -36.9284148524973 58.6332452992472 -225.647625988901 385.379498190371
-0.0322500006482005 0.05444999679178 0.00564999974519014 16 0.0656588832537333 0.26597191088155 -0.0730098664954615 0.283518230337655 1.09234855671299 29.7970912162707 -1.34369205632556 -15.5058708328181 -7.13430020690504 2.51666033232033 -1.1818091533725 -41.207170931221 -2.74914568400965 -43.7238312635413 -0.161882902953056 -45.3029620490888 62.9615596761872 -486.937402853935 572.963375279409
-0.0294500006064773 0.05444999679178 0.00564999974519014 16 0.073801113764445 0.204734223985773 -0.0811806765835111 0.232277870479488 2.4089724471727 33.7841091048625 -0.549037888270187 -26.0601277033061 -2.64567534968851 2.13470173800375 -1.34264758062138 -37.9983446425983 -4.77637252384309 -40.1330463806021 0.793609692351192 -59.8442368081687 72.0598633587625 -953.830453443717 955.553387790936
-0.026650000564754 0.05444999679178 0.00564999974519014 16 0.0826063744227092 0.117141729048065 -0.0831699487722168 0.165720361327172 2.48806867884541 36.5056111108089 0.492836456675228 -31.8865804796701 1.98517902727434 1.49343129957202 1.52233546215629 -34.8692018352469 -5.24117042533516 -36.3626331348189 -1.02949900548106 -68.392191590479 77.4647844329829 -1211.93598414022 1196.85780981831
-0.0238500005230308 0.05444999679178 0.00564999974519014 16 0.0914516158898671 0.0225012450913588 -0.0707319180904111 0.117782461836548 0.13188327510473 36.1745183775362 1.46706910125666 -33.4986534306411 4.608502792426 0.752635532939272 7.27005944160871 -33.4425316588072 -3.89116609234135 -34.1951671917465 -5.80299034035204 -69.6731718081772 77.8288829803788 -1209.08154842211 1208.46416712723
-0.0210500004813075 0.05444999679178 0.00564999974519014 16 0.0855508240063985 -0.0745878448327615 -0.0377080763022726 0.11960012166962 -3.83097713515125 32.8547183022501 1.99003489827064 -33.6497512233854 4.88931507548681 0.0998117008788697 14.6901481022025 -33.4635058799911 -1.84209019887353 -33.56331758087 -12.7001132039318 -66.5044695256355 75.5687344694431 -1060.71399165359 1058.9788312325
-0.0182500004395843 0.05444999679178 0.00564999974519014 16 0.0688719809055329 -0.170286847431756 0.017989412182942 0.18456592077842 -6.34504755935545 27.2591320904651 1.97653520922773 -34.4618493659262 4.33700415199456 -0.392612292128845 18.7520599563821 -32.0274995689592 -0.388458425686424 -31.6348872768303 -16.7755247471543 -61.7209814563913 71.3558958706311 -881.91907234715 863.023150952436
-0.015450000397861 0.05444999679178 0.00564999974519014 16 0.046326230764389 -0.272181691979834 0.0744048380361831 0.285945926757195 -7.05711745917836 19.1584664306509 1.84741863622852 -34.7329583082257 4.6411576893414 -0.737894492267795 17.826388979309 -25.6116729618517 -0.410479401546943 -24.8737784695839 -15.9789703430805 -53.8914247388766 61.468024280637 -615.891638650738 581.837206912224
-0.0126500003561378 0.05444999679178 0.00564999974519014 16 0.0254233121871947 -0.369454006598953 0.123473642098033 0.390369501994636 -8.63284251191571 7.43126496242868 2.12844438517567 -29.8113835765207 6.085143610112 -0.968692356772682 16.828797864768 -12.5357411388472 -1.70042547363025 -11.5670487820746 -14.7003534795923 -37.2426485389494 41.6762747873123 -146.447784355571 125.373938964796
-0.0098500003144145 0.05444999679178 0.00564999974519014 16 -0.00393727302551272 -0.443967459721801 0.172537610259218 0.476331643253593 -12.6605147708473 -8.06762051410615 2.99965220335503 -14.8089695427708 7.46513010868291 -0.831812589865831 15.8218635722563 4.97198381846898 -3.4255993999831 5.80379640833481 -12.8222113689013 -6.74134902866465 15.6057343263449 151.127077720188 -239.512559090806
-0.00705000027269125 0.05444999679178 0.00564999974519014 16 -0.0450663836797078 -0.45517592030718 0.21249686491404 0.504352074412063 -17.3544786413198 -25.2997961796732 3.95451631890532 8.25622984495386 7.16110794872612 -0.216026725965481 14.8798916567343 22.3510099532461 -4.47806939599927 22.5670366792116 -10.925375337829 33.5560260246271 41.8884453437791 0.763465987166063 76.2358998082171
-0.004250000230968 0.05444999679178 0.00564999974519014 16 -0.100728470484416 -0.397668962094079 0.254913177849764 0.482977801167483 -16.7561433900356 -40.3534766186634 4.25613578275636 34.0936326915213 4.01496807926189 0.596424852596042 6.62232801198152 35.7784530876295 -4.27445057053364 35.1820282350334 -2.36619222922516 74.4471093101847 82.375639973471 -1150.33574774013 1313.45806707063
-0.00145000018924474 0.05444999679178 0.00564999974519014 16 -0.14102200349172 -0.259812350405652 0.24827374818502 0.386043413271055 -7.87535031964213 -49.159206119551 3.65305605799373 53.8523416412331 -2.03232529481088 0.953495844099068 -6.19693379662206 42.6970090342392 -3.42467867814327 41.7435131901402 9.8499898546158 103.011547760784 111.583700268739 -2609.00499910481 2679.20056772587
0.0013499998524785 0.05444999679178 0.00564999974519014 16 -0.148023630777995 -0.0897416454387712 0.219021105057133 0.279168054503387 5.81909057010669 -49.0270482314238 2.51779689116583 62.6789161668763 -9.51656458175898 0.347116165954712 -17.4337526787959 42.1243018536207 -2.78022001904009 41.777185687666 19.9515495699617 111.7059643983 120.919891069992 -2977.99247109622 3057.13690819944
0.00414999989420176 0.05444999679178 0.00564999974519014 16 -0.109018248319626 0.0970426475691299 0.146667762383101 0.206914683955421 18.0981559022116 -39.8049808842999 1.4574440777257 57.2198033500312 -15.205281372801 -0.848097653170048 -23.0533672729333 34.1145888551051 -2.81158331218975 34.9626865082751 24.510811350659 97.0247842343311 106.004613468764 -2093.06946196206 2056.84356432874
0.006949999935925 0.05444999679178 0.00564999974519014 16 -0.0431733028093975 0.233807889937889 0.0824884159319724 0.251663271526947 22.9630493167676 -24.3931641626525 0.76507594005934 39.5309251562181 -16.3771853036884 -1.82735479525352 -22.2681097352175 20.774982986523 -3.17099843163397 22.6023377817765 23.0331856752769 63.9240893188706 71.607838333525 -545.461877229127 622.330528353041
0.00974999997764826 0.05444999679178 0.00564999974519014 16 0.0241895739237468 0.318802153182526 0.0139885992972025 0.320024419803747 19.925433064902 -7.56206709326017 0.548446897582364 17.2564082232568 -12.6825991612093 -1.78179325067889 -17.8782629669803 6.22738926741651 -3.35169944911693 8.0091825180954 18.4267098645627 24.8184753165169 31.931917544637 44.2023709551741 -125.586768283322
0.0125500000193715 0.05444999679178 0.00564999974519014 16 0.0711696112155915 0.332079441083285 -0.0217369655998967 0.340315095792497 11.7212251033487 6.54138723131507 0.849848742395065 -3.15502793836798 -6.52822091147816 -0.775821311908562 -10.7526703839565 -6.18632787534455 -3.22070219193148 -5.41050656343599 11.6025191263516 -9.69641516968305 16.0596543702907 25.5733004621399 -68.26694894576
0.0153500000610948 0.05444999679178 0.00564999974519014 16 0.0908854242165884 0.304040556068843 -0.0467781285547729 0.320763173354996 4.52948149699129 16.3731748961953 1.56918626069107 -16.9290455853184 -1.19098282834246 0.427564150460904 -6.46649633377987 -15.7824360821813 -3.20168103889257 -16.2100002326422 8.03568259447095 -33.3022204815136 37.8995275867746 -286.271718041377 277.994022701546
0.018150000102818 0.05444999679178 0.00564999974519014 16 0.0969886954625447 0.240128088929535 -0.0593498184923859 0.265689117382621 2.45133509961524 22.8441272193051 2.38736662117165 -26.0773767746826 1.74069124878831 1.06354708851375 -8.60387370435651 -24.3870586015629 -3.97624697373305 -25.4506056900767 10.9912403255282 -48.9215039939877 56.2303676576904 -634.546584530669 629.790784128365
0.0209500001445413 0.05444999679178 0.00564999974519014 16 0.105495937665304 0.157712883718001 -0.100696854126484 0.214808293567776 3.53076452716045 27.2342396951485 2.81499141978733 -29.9286084477564 2.35494196812292 0.947644894197397 -14.8947762498276 -33.2624105251586 -5.63939803508733 -34.210055419356 17.7097676696149 -57.1628481429049 68.9315237791531 -873.745900200271 863.655420974193
0.0237500001862645 0.05444999679178 0.00564999974519014 16 0.117792650858561 0.069713189440663 -0.152103175023609 0.20462261172837 3.26021802557988 29.9687367670521 2.65537674706399 -30.1616286903634 2.00961564221871 0.501798360245857 -17.8158223664434 -41.1875091270256 -7.50216919440685 -41.6893074872714 20.4711991135074 -60.1303654574155 75.9784785446213 -947.953229167078 938.898057010337