TITLE="DynamicStudio Exported Data"
VARIABLES= "X (m)[m]" "Y (m)[m]" "Z (m)[m]" "Status[-]" "U[m/s]" "V[m/s]" "W[m/s]" "Length[m/s]" "dU/dX[1/s]" "dU/dY[1/s]" "dU/dZ[1/s]" "dV/dX[1/s]" "dV/dY[1/s]" "dV/dZ[1/s]" "dW/dX[1/s]" "dW/dY[1/s]" "dW/dZ[1/s]" "Vorticity X[1/s]" "Vorticity Y[1/s]" "Vorticity Z[1/s]" "Vorticity Magnitude[1/s]" "Lambda-2[1/s²]" "Q-Criterion[1/s²]"
ZONE T="DynamicStudio Data" I=26 J=26 F=POINT
-0.0350500006899238 0.0600499968752265 0.00564999974519014 16 0.190024365385373 -0.206239412248057 -0.189521407566499 0.33847055784887 -4.11017039017528 8.50736374988351 -6.7863986540543 -10.0606632575219 5.86872570941077 -0.156880158432678 7.1554921697632 -16.6765290290625 15.9279031071271 -16.5196488706299 -13.9418908238175 -18.5680270074054 28.4964339084715 -28.5986152804272 135.422163905043
-0.0322500006482005 0.0600499968752265 0.00564999974519014 16 0.178896099527677 -0.232177311663205 -0.172020204582562 0.339854482480364 -11.7238218967402 6.65010018860624 -5.51587344457706 -16.4186096994901 7.7318154798255 -0.201306932583597 15.7003361373028 -14.9238425828165 13.3689162799986 -14.7225356502329 -21.2162095818799 -23.0687098880963 34.6272433337651 0.572968006448057 48.7669664563237
-0.0294500006064773 0.0600499968752265 0.00564999974519014 16 0.122261690298716 -0.292666938136681 -0.104107932296271 0.333826780171999 -24.007182182982 1.94731370142508 -3.03604290805386 -21.9618280289614 10.6763984424966 -0.220746144301658 30.4001295778486 -10.486765932529 8.77656673849965 -10.2660197882274 -33.4361724859025 -23.9091417303865 42.3676273950171 23.7665646358788 -240.561002349913
-0.026650000564754 0.0600499968752265 0.00564999974519014 16 0.0387878664334615 -0.349512917588387 -0.00163301046937703 0.351662401838468 -36.1484844034891 -4.9889608592494 -0.271328156170919 -15.4195903630324 12.3275258157538 0.0403597345972121 45.4699044020586 -4.30424373189697 4.73313829136177 -4.34460346649418 -45.7412325582296 -10.430629503783 47.1161752169284 178.707051136457 -622.786015242428
-0.0238500005230308 0.0600499968752265 0.00564999974519014 16 -0.0894674078623454 -0.377538167780343 0.156721320239982 0.418450782551913 -40.7077282987447 -12.6861386830781 1.74232886666187 3.41927865182232 11.2615416522503 0.639518232196599 52.3840790505226 2.3061592844731 3.02060502161207 1.6666410522765 -50.6417501838608 16.1054173349005 53.1671799290973 131.946491610076 -596.744757875416
-0.0210500004813075 0.0600499968752265 0.00564999974519014 16 -0.200476639668147 -0.333815616919771 0.302448344759954 0.493050454213557 -32.6698614669064 -19.0152118016902 2.51162036585619 30.3975108224197 7.44359040265156 1.33592503010947 46.5678107939969 8.37881407084851 4.03931111477765 7.04288904073904 -44.0561904281408 49.4127226241099 66.5745248440271 -19.3997725716853 104.783152743802
-0.0182500004395843 0.0600499968752265 0.00564999974519014 16 -0.281445383628209 -0.215697460715892 0.432608603713646 0.559363122248852 -13.8669873182057 -22.2701351668583 2.1364347010862 55.5859830599304 1.97531008822794 1.77780986472843 24.4555530885289 13.3171810104312 6.58690426507097 11.5393711457028 -22.3191183874427 77.8561182267887 81.8099949723422 -984.771310407449 1056.26330869607
-0.015450000397861 0.0600499968752265 0.00564999974519014 16 -0.282614998022715 -0.0328747003544898 0.452666821523259 0.534658053655556 9.94319224489557 -21.7029788386993 1.10967319638261 66.9878469105975 -3.63725408768893 1.75901100844317 -7.64659324945902 15.9235180542614 8.19288000268443 14.1645070458182 8.75626644584163 88.6908257492968 90.2406118885158 -1366.19603027573 1449.80927796162
-0.0126500003561378 0.0600499968752265 0.00564999974519014 16 -0.223260021209717 0.148852238347778 0.39310610160348 0.475956335234224 27.4167584693489 -17.3614694618581 -0.0643462051347649 57.6233967857664 -8.01910096818946 1.23448674625327 -34.4027812426934 15.0639806423229 7.54760589586562 13.8294938960697 34.3384350375587 74.9848662476245 83.6248359545429 -90.7249295214784 906.164990452365
-0.0098500003144145 0.0600499968752265 0.00564999974519014 16 -0.12013649225235 0.281927456827834 0.251690150224216 0.396565000225685 34.16771903258 -10.3932480242577 -1.14929716918069 32.3414745424212 -9.98050146433769 0.402734708219973 -46.5760768636661 10.9089755902509 5.15618697940233 10.5062408820309 45.4267796944854 42.7347225666789 63.2473708839631 -4.75869987171125 61.9126364529263
-0.00705000027269125 0.0600499968752265 0.00564999974519014 16 -0.0192739788691203 0.327046366419721 0.11618331603376 0.347605199866731 30.4183585501009 -2.64376180357473 -1.98983918453023 3.43205458752713 -9.60847063988857 -0.424726542662526 -42.5704284395556 5.2336611019497 2.75023361530716 5.65838764461222 40.5805892550254 6.07581639110187 41.4212158179859 84.5389895808363 -308.45374878049
-0.004250000230968 0.0600499968752265 0.00564999974519014 16 0.0631082725524903 0.301983160641345 -0.000994784959281486 0.308508464993444 23.4475556558727 3.84515048675961 -2.50022025630733 -18.1956307231257 -7.8625106382337 -1.00387948773536 -33.7021636555089 0.139788479709773 1.39161106215758 1.14366796744514 31.2019433992016 -22.0407812098853 38.2186510050887 20.1643768509883 -176.825897867666
-0.00145000018924474 0.0600499968752265 0.00564999974519014 16 0.121242841879527 0.22849891283627 -0.0821837480657268 0.271414348037299 17.5208244601699 8.0630242214386 -2.46312260978356 -28.9491790399343 -5.85281633331485 -1.29977420828707 -28.4963460184242 -3.94287311420832 0.394392881248328 -2.64309890592126 26.0332234086406 -37.0122032613729 45.3278929924154 -37.6263545436499 60.1587046051146
0.0013499998524785 0.0600499968752265 0.00564999974519014 16 0.167652471065521 0.143010671285641 -0.169348751534708 0.277917978551783 13.3735827961606 10.5491245278775 -1.68060803321659 -30.7109856146169 -4.14346551477438 -1.44156506275006 -25.0373385595208 -7.80509212903962 -1.0636248434725 -6.36352706628956 23.3567305263042 -41.2601101424945 47.8375169356914 -84.6424559301268 205.414150010668
0.00414999989420176 0.0600499968752265 0.00564999974519014 16 0.201726949214935 0.0595096292360298 -0.232821999963295 0.313753472774858 9.61006394798934 12.1571568705021 -0.284730792533295 -27.7179208557093 -2.5626769701278 -1.47972428763405 -23.8769190385731 -12.2595433080999 -3.27918391681272 -10.7798190204659 23.5921882460398 -39.8750777262114 47.5690831110079 -261.295836136205 264.29470630329
0.006949999935925 0.0600499968752265 0.00564999974519014 16 0.227040915091832 -0.00904307475003104 -0.317313004629686 0.390277974312913 5.33628072620722 13.3072645564028 1.20425742867726 -23.2349786614198 -0.921161644359628 -1.37242091056128 -21.2174360433126 -17.0939155443683 -5.56592332665482 -15.7214946338071 22.4216934719899 -36.5422432178226 45.6643544908192 -300.28564897888 281.795424429939
0.00974999997764826 0.0600499968752265 0.00564999974519014 16 0.235987528165182 -0.0669195042612652 -0.364143594246513 0.439054541863371 1.39148019585427 13.7383378059345 2.12777459572946 -21.0537385029916 0.868896421451854 -1.09669962057543 -19.8125124838084 -21.3642888440222 -6.83261048758941 -20.2675892234468 21.9402870795378 -34.7920763089261 45.8545520526485 -279.85758402003 293.734504084818
0.0125500000193715 0.0600499968752265 0.00564999974519014 16 0.235685960054398 -0.122805086539742 -0.4364812586604 0.511023336266127 -2.45445841646284 13.0556423222959 2.20167991928029 -21.3690145598685 2.81637141056565 -0.772625329714653 -15.0907964087656 -24.5304688051635 -6.9139812595169 -23.7578434754489 17.2924763280459 -34.4246568821643 45.2605994835983 -261.569471912848 283.843526572707
0.0153500000610948 0.0600499968752265 0.00564999974519014 16 0.219334283272425 -0.18227969373654 -0.452581028585555 0.534942054808625 -9.17199423282338 10.9148806729398 1.59794998058469 -22.8386099632345 4.78040495194748 -0.596467594402645 0.70935882074797 -25.3840188937233 -6.12646435018824 -24.7875512993206 0.888591159836723 -33.7534906361743 41.8868765103355 -211.29568238223 216.065506405
0.018150000102818 0.0600499968752265 0.00564999974519014 16 0.17717123011748 -0.247064594412223 -0.428998519633315 0.525804420332306 -19.1757868108749 7.10612553270896 1.01221411621536 -20.9886354312638 6.58677817947786 -0.682742196510094 23.1201322142369 -22.2993512180814 -5.26173695885424 -21.6166090215714 -22.1079180980215 -28.0947609639728 41.7774271807525 76.8205491459326 50.4540437583914
0.0209500001445413 0.0600499968752265 0.00564999974519014 16 0.102785635391871 -0.296943100901553 -0.312271316857853 0.443005042124893 -32.2540408722927 1.57691919748132 1.11745593084236 -12.2476039586933 7.85178280463613 -1.04062228634717 48.6019361828786 -13.9561749141136 -4.66387264606067 -12.9155526277664 -47.4844802520362 -13.8245231561746 51.1146241792135 59.2447796819433 -188.962846277396
0.0237500001862645 0.0600499968752265 0.00564999974519014 16 -0.0145237906773885 -0.31489649685643 -0.1345201834136 0.342733750852934 -40.6179356687922 -5.60005074152795 2.03231383220643 2.5657400305366 8.34462109974225 -1.56824225685245 60.2578186924303 -1.43218854030514 -4.17570068109886 0.136053716547303 -58.2255048602239 8.16579077206455 58.7954765757951 84.427656003186 -314.518124037802
0.0265500002279878 0.0600499968752265 0.00564999974519014 16 -0.137051685452461 -0.283178716895491 0.0515298450441454 0.31879252676029 -40.5975261793461 -13.6973482126913 3.35202223933465 18.8235272467754 8.22628522602153 -2.04571010588689 57.3332430286406 11.5512576829304 -4.10740330482023 13.5969677888172 -53.9812207893059 32.5208754594667 64.4705907496129 15.721657552994 -111.724461566702
0.029350000269711 0.0600499968752265 0.00564999974519014 16 -0.254911150534948 -0.210919266793644 0.20898251876429 0.391331477038183 -31.5055012344573 -21.2987605324288 4.37734840744711 26.9852704029625 7.99714466463952 -2.24675737277483 41.8758459515021 21.4996235611032 -4.65875138067046 23.746380933878 -37.498497544055 48.2840309353913 65.5848730187699 1.69567957819261 297.31761990002
0.0321500003114343 0.0600499968752265 0.00564999974519014 16 -0.325121947924296 -0.132173167980121 0.298681682085541 0.460852226390888 -16.9315084657298 -26.6736099217531 4.91711537285025 21.2072273348462 8.18280912757255 -2.1732916840175 21.7605638427825 26.9197988082836 -5.70180661929795 29.0930904923011 -16.8434484699322 47.8808372565993 58.5037113963331 -162.23864140595 428.514771123465
0.0349500003531575 0.0600499968752265 0.00564999974519014 16 -0.356199466784795 -0.0909856811305508 0.334622506427889 0.497120383927923 -10.4140953594837 -28.9779461347212 5.1398000884764 14.7037160645245 8.4255515275965 -2.12489504753442 12.6843580849642 28.8075514078845 -6.55919070811558 30.932446455419 -7.54455799648783 43.6816621992457 54.0539009838211 -228.049862677226 347.40019176903
-0.0350500006899238 0.0572499968335032 0.00564999974519014 16 0.16605427980423 -0.220272515466883 -0.144904808898379 0.311594943080412 -2.81527577473948 15.7294738290431 -5.99803990128578 -11.3383394115196 8.06497463511842 -0.142994409443546 5.82010459786007 -27.9198731774995 14.2275358277971 -27.776878768056 -11.8181444991459 -27.0678132405626 40.544913948903 -74.1644979343324 261.248097776221
-0.0322500006482005 0.0572499968335032 0.00564999974519014 16 0.157912599643071 -0.252747749021752 -0.127973535503261 0.324337847854363 -8.63951288949182 12.8326211370752 -4.90700894129619 -18.2033554457267 9.65458250921608 -0.246419643875172 12.1561608671463 -24.514797532124 12.2812772286103 -24.2683778882489 -17.0631698084425 -31.035976582802 42.9341096528951 -107.534843224876 216.261687623049
-0.0294500006064773 0.0572499968335032 0.00564999974519014 16 0.116097821791967 -0.323853384120739 -0.0751784574535365 0.352152692871129 -18.2922322563447 5.60095769891655 -2.77225746234441 -23.8447619388403 12.340734511108 -0.348345016479108 24.5749468838028 -16.6244651180176 8.70333115861243 -16.2761201015384 -27.3472043461472 -29.4457196377569 43.3570302960779 95.1617187610029 -81.6469043875781
-0.026650000564754 0.0572499968335032 0.00564999974519014 16 0.0511040989557903 -0.386649699360896 0.0137522942091649 0.390254717514049 -28.5540580574705 -5.3963270535146 -0.436981831862349 -15.6099516720372 13.8636539389059 -0.106756332384563 38.2483954983975 -5.63861425385459 5.65624049473167 -5.53185792147003 -38.6853773302598 -10.2136246185226 40.3915585128378 248.078686536729 -547.080546478255
-0.0238500005230308 0.0572499968335032 0.00564999974519014 16 -0.0530694230397541 -0.410621215100206 0.149993010108107 0.440368083577174 -32.9105851259102 -18.2221706310916 1.1846042549492 5.53628578265676 12.2923361715774 0.543399454747435 45.0195537717852 6.74395225642068 4.69270410263885 6.20055280167325 -43.834949516836 23.7584564137483 50.2435459074484 141.141683313822 -457.415188167125
-0.0210500004813075 0.0572499968335032 0.00564999974519014 16 -0.146372881333033 -0.356428674910712 0.283526184709432 0.478386369061899 -27.0806334780133 -29.4988507532819 1.71980031287686 34.852193411447 6.99329686824864 1.30424708737954 40.0435335144404 18.6085365525895 5.96730904114799 17.30428946521 -38.3237332015636 64.3510441647289 76.8713460626994 -251.362169039233 625.712386146839
-0.0182500004395843 0.0572499968335032 0.00564999974519014 16 -0.21723494052887 -0.21999642713073 0.394083124774819 0.500890164176892 -11.9753079094006 -35.894783695924 1.32366410657273 60.5000369125046 -0.552679468544985 1.74512206549144 20.1254703357602 27.8167742717205 8.2117129381435 26.071652206229 -18.8018062291875 96.3948206084287 101.612993295019 -2125.38754589573 2000.19498005671
-0.015450000397861 0.0572499968335032 0.00564999974519014 16 -0.219995846350988 -0.0231448811696221 0.408950124283632 0.464945224825077 7.47492476093382 -35.5072477301537 0.43102757629073 71.0247461139182 -7.63277779913423 1.68412974728308 -8.22205346582724 31.8535382262473 9.31526589960602 30.1694084789642 8.65308104211797 106.531993844072 111.059149699092 -2410.77872856832 2413.26681294328
-0.0126500003561378 0.0572499968335032 0.00564999974519014 16 -0.173125470876694 0.17476837486669 0.347604693927957 0.42584672918853 21.4091500358978 -28.4785416050212 -0.533364306106 59.6631160821528 -12.2487806720078 1.24100843415958 -31.1607541868283 29.4734838573965 8.26497822010878 28.2324754232369 30.6273898807223 88.141657687174 97.4887762733352 -1328.72807829625 1459.39592766199
-0.0098500003144145 0.0572499968335032 0.00564999974519014 16 -0.0909348885218302 0.310980857810937 0.222730329850068 0.393175593991316 26.5830359230128 -17.208990541203 -1.36481580020336 32.2508535276872 -13.5440787882775 0.651626701205742 -40.8492539795413 21.8896356014306 5.71597819837199 21.2380089002249 39.484438179338 49.4598440688902 66.7558990329913 -32.0928018769553 199.476716747097
-0.00705000027269125 0.0572499968335032 0.00564999974519014 16 -0.0126477384567261 0.356744303248124 0.102394673376499 0.371363881286184 23.2608328344726 -5.04994378956856 -1.97193896386544 2.16795486371708 -12.3133683245498 0.129356917211595 -36.6535721093967 12.1377278832474 3.28415756760059 12.0083709660358 34.6816331455312 7.21789865328564 37.4047418366742 140.288888768167 -313.366659678549
-0.004250000230968 0.0572499968335032 0.00564999974519014 16 0.04975781361262 0.324232997849273 0.00254780241753905 0.328038668767866 18.2558440144766 5.13632280401098 -2.29404256586881 -20.0264895180444 -9.80039647303937 -0.252899063018411 -28.6446520895961 2.8613175279223 1.83131837060908 3.11421659094072 26.3506095237273 -25.1628123220553 36.5680200612806 28.2230428688163 -125.555804737887
-0.00145000018924474 0.0572499968335032 0.00564999974519014 16 0.0983674923578899 0.245961066894233 -0.0719149397381504 0.274490015370452 14.1769224705331 12.2659785234841 -2.12890507940239 -30.4244634810645 -7.16415133863011 -0.541498973996003 -23.751339519 -5.58031333944193 0.701543377860058 -5.03881436544592 21.6224344395976 -42.6904420045487 48.1185323949916 -137.058694241335 222.953879407881
0.0013499998524785 0.0572499968335032 0.00564999974519014 16 0.137304834127426 0.154709283340295 -0.145804345003417 0.253074073836699 11.1938970890273 16.9608661181078 -1.31246230072797 -31.9631613594493 -5.00647475884768 -0.821042523421606 -20.3886789722606 -13.6865730878492 -0.866322795781314 -12.8655305644276 19.0762166715326 -48.9240274775571 54.0646315425181 -411.923778935674 442.724001270203
0.00414999989420176 0.0572499968335032 0.00564999974519014 16 0.168554073174795 0.0675294885896922 -0.201274068442484 0.271075557807024 8.1792829788169 20.0353220135387 0.0283263442098795 -28.9638920410797 -3.03525734352706 -1.0848471287683 -19.2536314618244 -21.4737031921713 -3.03788566510647 -20.388856063403 19.2819578060343 -48.9992140546184 56.4661166220784 -550.94950851692 517.097413083803
0.006949999935925 0.0572499968335032 0.00564999974519014 16 0.18913224697113 -0.00680610573695352 -0.26581400819831 0.326304178450265 4.56538670767409 21.8536277726107 1.39441053478304 -24.6354867177145 -0.935949877117915 -1.1878121235816 -17.440654025377 -28.2623153747661 -5.203165696586 -27.0745032511845 18.8350645601601 -46.4891144903252 57.0002293800504 -514.706981973902 505.966333247167
0.00974999997764826 0.0572499968335032 0.00564999974519014 16 0.197203876972198 -0.0687962900692946 -0.30588936892765 0.370392500792227 1.65965866248796 22.2126522413329 2.18958228756896 -22.619428662321 1.43356231656907 -1.04628157886507 -16.9582999149841 -33.4698521949747 -6.45810925606414 -32.4235706161097 19.147882202553 -44.8320809036538 58.5477992967495 -482.877551938625 486.953071176976
0.0125500000193715 0.0572499968335032 0.00564999974519014 16 0.198040972948074 -0.131060417459424 -0.363709053026202 0.434374648482246 -1.23210372489063 20.9496842443399 2.15669815718372 -22.996413550464 3.97749313678935 -0.784237611160996 -13.2648571365384 -37.0946107156458 -6.53447233011681 -36.3103731044848 15.4215552937221 -43.9460977948038 59.0552882818693 -453.639621385139 458.444551424558
0.0153500000610948 0.0572499968335032 0.00564999974519014 16 0.18728125611941 -0.195370205781267 -0.380069898152336 0.466580018520088 -6.54588966736456 17.8148122037608 1.47613926941517 -24.3709486166484 6.48255293367152 -0.632061571802325 -0.172032181982056 -37.7546422889564 -5.63496463238321 -37.1225807171541 1.64817145139723 -42.1857608204093 56.2177986427039 -371.081012231941 368.477381732158
0.018150000102818 0.0572499968335032 0.00564999974519014 16 0.156213360627492 -0.265962243442094 -0.360407098740628 0.474375174095276 -15.0030358336295 12.2855417078002 0.840763016714919 -22.3292954586542 8.75342720529913 -0.764250426343616 18.3083535862321 -33.0896952167689 -4.48046407610024 -32.3254447904253 -17.4675905695172 -34.6148371664545 50.4800758048487 -162.331667665537 130.318855314601
0.0209500001445413 0.0572499968335032 0.00564999974519014 16 0.0964326536655427 -0.319886558880874 -0.268936351667016 0.428897923163065 -26.0906313546097 3.792449991281 0.904982363890586 -12.8339845224458 10.258799588056 -1.2152007273663 38.5920482279801 -21.0490874018548 -3.60205270801601 -19.8338866744885 -37.6870658640895 -16.6264345137268 45.7180086913233 81.1005487919213 -222.463210568841
0.0237500001862645 0.0572499968335032 0.00564999974519014 16 0.000706890821456918 -0.33883235826157 -0.129489893691304 0.362733372145321 -32.8961602166867 -7.70041166550441 1.80157343611614 2.55934597051126 10.6872947801319 -1.87225938198666 47.6351114545465 -2.59115433367532 -2.99466422486738 -0.718894951688659 -45.8335380184304 10.2597576360157 46.973318426403 143.006567168356 -356.024313439389
0.0265500002279878 0.0572499968335032 0.00564999974519014 16 -0.098999008735021 -0.307446067359609 0.017898882286366 0.323487647449647 -32.5498794100487 -20.7707347298529 3.12518679447903 19.3498254782661 10.2068358999067 -2.43530958014152 45.4760720403254 17.5609084847785 -2.90192388624919 19.99621806492 -42.3508852458464 40.120560208119 61.6693243794675 4.95470588684963 35.1616548952475
0.029350000269711 0.0572499968335032 0.00564999974519014 16 -0.193051130374273 -0.232764022295984 0.145361941172935 0.33552633720135 -24.9031308993703 -32.886947727658 4.18682637195265 27.3751201642667 9.36706809423913 -2.60640306696395 34.0146184098349 33.9631850553699 -3.4780868710504 36.5695881223338 -29.8277920378823 60.2620678919247 76.5411574246381 -143.344697227862 667.159047358762
0.0321500003114343 0.0572499968335032 0.00564999974519014 16 -0.248172968228658 -0.156143878720856 0.222275590144369 0.367936368133735 -13.2838457499037 -41.345364315463 4.74857857382005 21.3679005365105 8.75465697695958 -2.42841050580957 18.307395522763 43.470855834663 -4.5485209468668 45.8992663404726 -13.558816948943 62.7132648519735 78.8894020514946 -617.727879141785 806.400206352992
0.0349500003531575 0.0572499968335032 0.00564999974519014 16 -0.272856398423513 -0.115487690305648 0.252811065532927 0.389488710527889 -8.26923154863064 -44.9398695639173 4.94680289672279 15.1207304438166 8.37406484885659 -2.27804691410391 10.9197720917484 46.8829686192208 -5.44884381113239 49.1610155333247 -5.97296919502562 60.0606000077339 77.8444441341932 -556.261665671476 662.488994110723
-0.0350500006899238 0.05444999679178 0.00564999974519014 16 0.100446945428848 -0.248080445948678 -0.0342608387659614 0.269828281655256 -0.112310416860353 26.5185901718154 -4.28945169793342 -12.7445847043851 8.10015721530548 -0.14033310080419 1.9631047653591 -36.6347534398069 11.3016700447162 -36.4944203390027 -6.25255646329252 -39.2631748762005 53.9678986024616 -183.536903554376 430.614270057446
-0.0322500006482005 0.05444999679178 0.00564999974519014 16 0.100933269659678 -0.284271735024899 -0.0279962599471522 0.302955004628225 -2.53526989791081 22.4102114195759 -3.51386787012133 -19.9896020078133 8.76554433424958 -0.303539712891926 3.92293078778771 -30.5209323949901 10.2499998355236 -30.2173926820982 -7.43679865790904 -42.3998134273892 52.5941153881289 -334.659811578046 494.128843842137
-0.0294500006064773 0.05444999679178 0.00564999974519014 16 0.0878196493784587 -0.363730666136641 -0.0108552423755949 0.374339584591575 -6.89210339216898 12.1375030019778 -2.05114409818959 -25.3159967641508 9.33687371975473 -0.531405168768444 11.3411122060221 -16.9442000519573 8.26661932923453 -16.4127948831888 -13.3922563042117 -37.4534997661287 43.0290251984254 -215.356806262105 277.390293212358
-0.026650000564754 0.05444999679178 0.00564999974519014 16 0.0635692469278972 -0.433292674073406 0.039239275737976 0.439685468626271 -12.9676638337916 -3.85173533344568 -0.583040670096963 -14.2190875753369 7.89432502056697 -0.405992373480388 22.1116003072773 1.4405789527806 6.882409068942 1.84657132626099 -22.6946409773743 -10.3673522418912 25.0187639035651 101.171604502422 -178.579081814342
-0.0238500005230308 0.05444999679178 0.00564999974519014 16 0.0144890256722767 -0.451341202532252 0.11863784981387 0.466898010679687 -16.4597824778901 -23.0630886275677 0.271216341288641 10.250562351414 3.36050212243788 0.202001795743322 28.7732094955936 21.441151909817 7.13384119166545 21.2391501140737 -28.501993154305 33.3136509789817 48.7161621321468 25.099829661703 75.5133924652407
-0.0210500004813075 0.05444999679178 0.00564999974519014 16 -0.0314104167620342 -0.379355721696241 0.205758140768545 0.432705200289261 -14.7013297153882 -40.6165149160225 0.379937846051302 42.3754650105988 -3.57800674214239 0.97938769341247 26.2539874371771 39.612457967103 8.78364983169631 38.6330702736905 -25.8740495911258 82.9919799266213 95.1296446600988 -1606.63460439482 1564.41503564185
-0.0182500004395843 0.05444999679178 0.00564999974519014 16 -0.0718148887157439 -0.208443848569489 0.268869620049372 0.347702586750816 -7.42528061479029 -51.1499130306157 -0.0480695664815358 67.4433098779049 -10.4985749699008 1.39595082822378 12.1240151298723 52.1952215311234 10.5781442069219 50.7992707028996 -12.1720846963539 118.593222908521 129.58810929106 -3293.91469315438 3265.79400426533
-0.015450000397861 0.05444999679178 0.00564999974519014 16 -0.076181937456131 0.00962186147846902 0.27169464017022 0.282337112881226 2.50524136806522 -51.1177928981277 -0.705639847816131 75.4926871606631 -14.8296906514567 1.27955084519805 -7.31779700473486 55.2556563213921 10.9686877333976 53.9761054761941 6.61215715691873 126.610480058791 137.79460891255 -3539.53841709971 3610.81840651788
-0.0126500003561378 0.05444999679178 0.00564999974519014 16 -0.0582020044326783 0.226235126210686 0.217442394869649 0.319141035810494 8.94725272729355 -40.7149183217874 -1.31340714964018 60.816767452193 -15.8352801953683 0.998929333721374 -21.9610483433054 47.5317483856277 9.3818994129352 46.5328190519063 20.6476411936652 101.53168577398 113.579538438427 -2136.99518681302 2193.52002898354
-0.0098500003144145 0.05444999679178 0.00564999974519014 16 -0.0241978454589844 0.358600826935532 0.131138288507548 0.382592916186896 10.9909041728702 -23.9304403268586 -1.72848883391968 30.675409822083 -14.1181897435346 0.861412983664154 -26.9257526307045 31.9923894492338 6.63856485114772 31.1309764655696 25.1972637967848 54.6058501489416 67.7188206411872 -480.058375071343 484.044183197723
-0.00705000027269125 0.05444999679178 0.00564999974519014 16 0.00688061396280926 0.402128056705454 0.0476685588500307 0.405001985601366 8.98570933604531 -6.22223182992315 -1.93208354706299 -0.301653695327672 -11.3038479426134 0.926525778621123 -23.0531533036441 14.2203770128276 4.14258120341031 13.2938512342065 21.1210697565811 5.92057813459548 25.6491581489029 138.417410219601 -170.769292724316
-0.004250000230968 0.05444999679178 0.00564999974519014 16 0.0285841639836628 0.357184018281211 -0.0110735776405393 0.358497003429482 7.90332667579026 8.21914241361098 -1.92040342282081 -22.8113439141349 -8.56235683898846 0.958424277496378 -17.3265348463649 -1.42174868083105 2.51885338370176 -2.38017295832743 15.4061314235441 -31.0304863277459 34.7261456324697 -105.034579121912 86.2472823340106
-0.00145000018924474 0.05444999679178 0.00564999974519014 16 0.0520846478144328 0.271359269486469 -0.0544592708093114 0.28162825826125 7.30810782492852 18.3108186784288 -1.56881099978726 -32.4080405453223 -6.43017051304944 0.743454417514493 -13.5679551657987 -14.4816194098993 1.24284623242023 -15.2250738274138 11.9991441660114 -50.7188592237511 54.2971915915143 -551.978741500435 536.997382401222
0.0013499998524785 0.05444999679178 0.00564999974519014 16 0.0701546414693197 0.171675527410407 -0.0874427325664631 0.205037537807154 6.55890482919296 25.1197379892441 -0.768949523463168 -33.7132492086525 -4.85418217937089 0.26999251316202 -11.0652196642466 -25.8822033227073 -0.343874462538084 -26.1521958358693 10.2962701407835 -58.8329871978966 65.2017707464876 -828.996057008122 812.923063097831
0.00414999989420176 0.05444999679178 0.00564999974519014 16 0.0905172407627106 0.0790827846216659 -0.115825242639306 0.166921971385631 5.06653183883344 29.7930254936311 0.385007522585032 -30.8887386249286 -3.15046516163933 -0.352460111297755 -10.805216525969 -35.8669474622545 -2.32943152108577 -35.5144873509567 11.1902240485541 -60.6817641185597 71.1953398938345 -899.112849280609 891.362120506869
0.006949999935925 0.05444999679178 0.00564999974519014 16 0.101803193887075 -0.00381652199896052 -0.149153111566169 0.180624214366867 2.96955849866966 32.683299083547 1.4861537631713 -26.9590651968943 -1.00134756501975 -0.825925468367686 -11.1291672486414 -43.8382369922508 -4.29148968216917 -43.0123115238831 12.6153210118127 -59.6423642804413 74.608423678694 -849.26932454469 850.023611124316
0.00974999997764826 0.05444999679178 0.00564999974519014 16 0.110146028200785 -0.0734236636633674 -0.179865945014559 0.223326980210945 2.06894435098638 33.5108171353308 2.07706653034517 -25.1802003740767 1.5134904322288 -0.979811538059347 -12.3501579951496 -49.5503288686123 -5.54397977772859 -48.5705173305529 14.4272245254948 -58.6910175094075 77.5362850384009 -804.816267468585 804.181587529627
0.0125500000193715 0.05444999679178 0.00564999974519014 16 0.115467306375504 -0.146355345117239 -0.21887894076431 0.287507524416504 0.943696112279658 32.1886996066551 1.93227971907325 -25.484558572588 4.0184763458883 -0.890873242294894 -10.3157866658172 -53.4827827384968 -5.60636086107476 -52.5919094962019 12.2480663848905 -57.6732581792431 79.0071438772153 -769.58398111774 768.573896846215
0.0153500000610948 0.05444999679178 0.00564999974519014 16 0.115604066451391 -0.217987875227506 -0.236522362639856 0.341797954872524 -1.66771089508757 28.2695930377868 1.19521767780926 -26.6429190625337 6.27353201701543 -0.814682442870266 -2.00227170981928 -53.9415821080702 -4.48411752687157 -53.1268996651999 3.19748938762854 -54.9125121003205 76.4727101101305 -676.595211154823 680.516888981855
0.018150000102818 0.05444999679178 0.00564999974519014 16 0.10428764184316 -0.29797638561499 -0.227064354682419 0.388875378228969 -6.80240117047721 20.7200500983181 0.496752552736514 -24.1502925582559 8.09562529087478 -1.01394816065021 8.97999449994107 -47.4479305661294 -2.81543522511278 -46.4339824054792 -8.48324194720456 -44.8703426565741 65.1262448332893 -389.229995001391 389.114014883587
0.0209500001445413 0.05444999679178 0.00564999974519014 16 0.0750153144200643 -0.356667064659608 -0.181506253612073 0.407164846850427 -13.4326692265513 8.35454502362667 0.446542354653709 -13.4172516370195 8.99451712229326 -1.56385514995794 19.1506554936253 -30.7187865603977 -1.42917146091245 -29.1549314104398 -18.7041131389716 -21.7717966606462 40.9128953228126 35.2919697665099 -58.973771495137
0.0237500001862645 0.05444999679178 0.00564999974519014 16 0.0262910572687785 -0.376420625311439 -0.113283385137135 0.393975674630165 -16.7638325901444 -8.94288307418859 1.2124866864779 2.74734652586776 8.96128848943459 -2.36609625164707 22.2845171909239 -4.38473263059982 -0.597100088463415 -2.01863637895275 -21.072030504446 11.6902296000564 24.1819525785816 119.712553299636 -158.391821361302