TITLE="DynamicStudio Exported Data"
VARIABLES= "X (m)[m]" "Y (m)[m]" "Z (m)[m]" "Status[-]" "U[m/s]" "V[m/s]" "W[m/s]" "Length[m/s]" "dU/dX[1/s]" "dU/dY[1/s]" "dU/dZ[1/s]" "dV/dX[1/s]" "dV/dY[1/s]" "dV/dZ[1/s]" "dW/dX[1/s]" "dW/dY[1/s]" "dW/dZ[1/s]" "Vorticity X[1/s]" "Vorticity Y[1/s]" "Vorticity Z[1/s]" "Vorticity Magnitude[1/s]" "Lambda-2[1/s²]" "Q-Criterion[1/s²]"
ZONE T="DynamicStudio Data" I=26 J=26 F=POINT
-0.0350500006899238 0.0600499968752265 0.00564999974519014 16 0.217704047163328 0.0676285487712206 -0.164601659260225 0.281180331800453 -1.63581605396186 13.9119202238106 -0.647172369471661 -8.54502360033416 -2.88862805344263 0.153154904602234 -2.78711235442156 -15.6948724752994 8.69349944007632 -15.8480273799016 2.1399399849499 -22.4569438241448 27.569070366882 -120.980072824654 84.8697030581003
-0.0322500006482005 0.0600499968752265 0.00564999974519014 16 0.211944133241971 0.0447024944083144 -0.172355719128003 0.276812432051284 1.40125787251542 14.2475919301079 -0.960443071782621 -12.2723294623965 -2.40558818190148 0.185267484011762 -5.84828241455816 -15.3943520623444 8.16572889186437 -15.5796195463561 4.88783934277553 -26.5199213925043 31.1435667404136 -163.345471942342 160.514334357508
-0.0294500006064773 0.0600499968752265 0.00564999974519014 16 0.2263387910525 0.000233274438069202 -0.198163167682166 0.300828761553647 3.17424314993935 15.1528147999191 -1.14837802772773 -16.1464749302054 -1.59907606802229 0.17799017558662 -12.0596935128009 -15.0453902982199 6.54722134149861 -15.2233804738065 10.9113154850732 -31.2992897301246 36.4753842512365 -219.735951412524 238.73050017866
-0.026650000564754 0.0600499968752265 0.00564999974519014 16 0.231565857728322 -0.0441216953498467 -0.24347118254751 0.338891851771448 3.37393343466982 15.7887106507806 -0.751120704194691 -13.6229786420072 -0.686609170622165 0.320162010986395 -13.3371994145746 -14.4055044315825 3.41006054990817 -14.7256664425689 12.5860787103799 -29.4116892927878 35.2179229446764 -193.035543348863 216.530881452571
-0.0238500005230308 0.0600499968752265 0.00564999974519014 16 0.247144220670064 -0.0738798462805183 -0.278294702755132 0.3794554507167 -0.444001354875053 15.5143439350138 0.397790016385145 -10.9496532073789 0.319828698231494 0.624655987203226 -4.88401844761743 -12.7558341086501 -0.630565250111984 -13.3804900958534 5.28180846400258 -26.4639971423927 30.1210584244347 -179.99251791317 179.723802341396
-0.0210500004813075 0.0600499968752265 0.00564999974519014 16 0.230406648715337 -0.102897082819715 -0.27451928205012 0.372875139480166 -11.6010934120285 13.6814016643194 1.81093229800731 -13.762016742374 1.78819668422958 0.809483643735679 14.1790283348764 -8.90675312488492 -4.09725906240137 -9.7162367686206 -12.3680960368691 -27.4434184066934 31.6309384996074 -51.9689061727452 189.27723264446
-0.0182500004395843 0.0600499968752265 0.00564999974519014 16 0.179415822426478 -0.147388511245372 -0.194422066929207 0.302842121728668 -25.737058196725 9.81584291410867 2.6569535412041 -20.9306694622822 4.18161800210006 0.512104697424816 35.4332277327698 -2.38619017110593 -5.24936884380469 -2.89829486853074 -32.7762741915657 -30.7465123763908 45.0336794670078 -31.8816200161552 118.059613119229
-0.015450000397861 0.0600499968752265 0.00564999974519014 16 0.0779154976209004 -0.21572329916254 -0.0612639909548064 0.237403966181683 -37.4399498912274 3.83839160397442 2.6340229369479 -23.5458356151228 7.64724632639126 -0.547310637380979 48.4428229609308 5.75147819120906 -3.78715846643878 6.29878882859004 -45.8088000239829 -27.3842272190972 53.7402716845716 22.9464845085484 -207.556353603527
-0.0126500003561378 0.0600499968752265 0.00564999974519014 16 -0.0442933797836305 -0.274367934176674 0.0971732241439167 0.294418583461636 -41.4476773542062 -3.72137600362143 1.93310830049433 -11.3245387576628 11.6850530981708 -2.40476958161254 51.1312558449172 13.759918664317 -0.995467689303824 16.1646882459296 -49.1981475444229 -7.60316275404142 52.3408344579578 134.234598371348 -562.58626790792
-0.0098500003144145 0.0600499968752265 0.00564999974519014 16 -0.171206705570221 -0.275472590951249 0.244761125170238 0.406331013820264 -35.4533386135321 -11.0009528476425 1.03957339281762 16.0496098001505 15.1303735508867 -4.67882993624668 45.1483817069813 19.3310531827324 1.55048295347221 24.009883118979 -44.1088083141637 27.050562647793 57.0420406178184 38.1852971758281 -347.86001312875
-0.00705000027269125 0.0600499968752265 0.00564999974519014 16 -0.256518584887187 -0.183269737277102 0.360872147769163 0.479185024838706 -21.631297383334 -15.6506446178965 0.42408503078341 45.2619944428107 16.2132348230505 -6.47075386334513 32.0200143485491 20.7946499996073 2.72078696988437 27.2654038629524 -31.5959293177657 60.9126390607073 73.8380294604559 -371.614660633937 463.902544753548
-0.004250000230968 0.0600499968752265 0.00564999974519014 16 -0.298223428726196 -0.0253872147534761 0.423383490911995 0.518493302262407 -5.26090517448438 -16.2544117621893 0.090630410278192 60.3601816681307 13.8169535224394 -6.77926857452173 13.3847123748879 18.4608055727632 2.79545714289662 25.2400741472849 -13.2940819646097 76.61459343032 81.7532255310788 -873.645985831314 1056.28532816759
-0.00145000018924474 0.0600499968752265 0.00564999974519014 16 -0.28331486304601 0.148273579264836 0.428221464575036 0.534439883105269 10.8222062274422 -13.1245604874484 0.121849194009033 55.3131700568511 8.73808101337483 -5.29299763658206 -9.84207959884761 14.2606855913438 2.34613807559642 19.5536832279259 9.96392879285664 68.4377305442995 71.8703650110484 -493.644865471166 943.098520185298
0.0013499998524785 0.0600499968752265 0.00564999974519014 16 -0.228252069950104 0.277411024121296 0.358552450905554 0.507558611187824 22.3654565887578 -8.15844222099491 0.553906203996548 35.7699965025482 3.17668568567396 -2.78680384627988 -29.2226764252338 10.5658130447864 1.20116358578168 13.3526168910663 29.7765826292304 43.9284387235431 54.7233494918125 18.3676738110467 439.187236914807
0.00414999989420176 0.0600499968752265 0.00564999974519014 16 -0.147341215610504 0.343972811327743 0.256388754669654 0.453609878939324 28.5567931478274 -3.25312000537992 1.2463138267829 13.5807474676554 -0.496524619959099 -0.264207123000921 -37.8597332860021 8.15357440316348 -0.465681743888172 8.4177815261644 39.106047112785 16.8338674730354 43.3995513883417 0.281956497358724 66.2728371359298
0.006949999935925 0.0600499968752265 0.00564999974519014 16 -0.0584734396139781 0.353560028991972 0.139829378230497 0.384676607369647 29.7417356680004 0.70433092865376 1.97901136234693 -6.04618081353914 -1.43561591153112 1.7328770937124 -38.1231421676973 6.29997141353813 -2.22856404367575 4.56709431982573 40.1021535300442 -6.7505117421929 40.9220048024887 19.9416546089923 -36.9921421548956
0.00974999997764826 0.0600499968752265 0.00564999974519014 16 0.0266073783238729 0.31370815768217 0.036292287442678 0.316919376033453 26.2614185167204 3.91572665442296 2.24843142485543 -20.4010196264874 -0.228847105764991 3.12528221228923 -33.7887406546143 3.5034231516484 -3.2858103650086 0.378140939359167 36.0371720794697 -24.3167462809104 43.475566836391 32.1520404054696 53.3593539742205
0.0125500000193715 0.0600499968752265 0.00564999974519014 16 0.0941795265674592 0.245194094611648 -0.0572927210627434 0.26883523419312 22.2189903575127 7.05773344478978 1.83589899216816 -30.4153518001597 1.75855018906802 3.69197758860038 -31.0231988478985 -1.3853279030306 -3.28197457964098 -5.07730549163098 32.8590978400667 -37.4730852449495 50.0972200794981 25.3316474242222 237.113035842491
0.0153500000610948 0.0600499968752265 0.00564999974519014 16 0.155813494126002 0.146897968993677 -0.147973965053679 0.260294357564525 16.6759167436768 10.1727354465301 0.860881792591803 -35.2111119194524 3.18652610602125 3.08027402304593 -27.1181140332128 -8.19144564157615 -2.98137653191678 -11.2717196646221 27.9789958258046 -45.3838473659825 54.493756278651 -37.8670338619063 400.691537243249
0.018150000102818 0.0600499968752265 0.00564999974519014 16 0.190817236701647 0.0473945734556764 -0.222885270569823 0.29721256240691 10.1079936530216 12.7482337130585 -0.0557130637836034 -34.1936520941973 3.56349548887542 1.35950703947102 -18.9836787838178 -15.301055116168 -3.25743723240372 -16.6605621556391 18.9279657200342 -46.9418858072558 53.2858598577723 -374.098607364459 447.13869366558
0.0209500001445413 0.0600499968752265 0.00564999974519014 16 0.215189505020777 -0.049258063348243 -0.267697413774052 0.346979516999524 1.12872493382729 14.085741350007 -0.381153828091873 -29.5415182622277 3.13787714357403 -0.824770876034059 -8.99248875777916 -20.5473176363584 -4.42159174280635 -19.7225467603243 8.61133492968729 -43.6272596122347 48.6463947405947 -393.614653423767 380.416462303019
0.0237500001862645 0.0600499968752265 0.00564999974519014 16 0.197903706232707 -0.123439135873535 -0.283075775116061 0.366790119364474 -9.14102835096582 13.8077747798416 -0.24786181969887 -24.3946959111587 2.58345430630396 -2.53792410904745 0.996995442006005 -23.0295338885439 -5.6540805618096 -20.4916097794964 -1.24485726170487 -38.2024706910003 43.369165404166 -278.251682813288 292.097997673828
0.0265500002279878 0.0600499968752265 0.00564999974519014 16 0.162441865801811 -0.189182728526503 -0.265567476108542 0.364284983089568 -16.3494724374244 12.5110727008852 -0.00702585009294693 -21.2330546374771 2.48868499562405 -3.30697364067792 8.19968468535221 -23.3600270289826 -5.84988630684417 -20.0530533883047 -8.20671053544516 -33.7441273383622 40.1016356004888 -88.8243260442524 228.850250272861
0.029350000269711 0.0600499968752265 0.00564999974519014 16 0.103890095154444 -0.242330542061245 -0.235404492465702 0.353457944542107 -18.7367058587739 11.0628145207116 0.0452828897245247 -18.1064971492058 3.0535310657648 -3.22455736416267 11.7519789806422 -23.1477206716772 -5.01684401830024 -19.9231633075145 -11.7066960909177 -29.1693116699173 37.2132760293927 81.3087704711287 146.602431096195
0.0321500003114343 0.0600499968752265 0.00564999974519014 16 0.05489986260732 -0.288048895514415 -0.197827139759514 0.353725512716862 -13.1089893300698 10.062562819998 0.00189292049615442 -12.0108942428013 3.84486408182665 -2.80500733347894 10.2162204059168 -23.1133698788403 -3.87343150713612 -20.3083625453613 -10.2143274854207 -22.0734570627994 31.6859524388411 36.2559947423861 41.4895397363496
0.0349500003531575 0.0600499968752265 0.00564999974519014 16 0.0294635657469431 -0.307419936372898 -0.176125358414526 0.355521111697585 -8.98689527529547 9.70990498268002 -0.0204057286769011 -7.37156923898699 4.31819433469689 -2.50454765461629 7.39247360575108 -23.0898321042379 -3.12781847388473 -20.5852844496216 -7.41287933442799 -17.081474221667 27.7575481172977 20.9019028534416 -10.30581036094
-0.0350500006899238 0.0572499968335032 0.00564999974519014 16 0.177618176937103 0.0764773892848946 -0.119912670751025 0.227543526510725 -1.48419409197848 22.8371312957105 -1.10427866862654 -9.08533054958272 -3.92821102494231 -0.132475675478681 -3.57640608171506 -23.882272931373 8.49379881207897 -23.7497972558944 2.47212741308852 -31.9224618452932 39.864869922111 -215.548548952766 160.228064883488
-0.0322500006482005 0.0572499968335032 0.00564999974519014 16 0.173436629374822 0.051142713943021 -0.129859605277888 0.222619313360917 0.627866812628502 23.4480911328372 -1.33755025012966 -12.838946597754 -3.34250486368229 -0.0682345290453035 -6.36470941330518 -23.2029214945132 7.86872348903678 -23.1346869654679 5.02715916317552 -36.2870377305912 43.3270721085956 -288.887970769568 267.493046713829
-0.0294500006064773 0.0572499968335032 0.00564999974519014 16 0.181688203414281 0.00505818397563417 -0.155589623406219 0.239257851274999 2.25544870382423 24.8385356822355 -1.44921797163885 -16.9155237928567 -2.27567623696653 0.0532610467240616 -12.6599555197839 -22.2025530768247 6.06006077995232 -22.2558141235488 11.210737548145 -41.7540594750922 48.6251311702588 -388.277096423426 397.737086370713
-0.026650000564754 0.0572499968335032 0.00564999974519014 16 0.187617212931315 -0.0425165793307315 -0.203809993836718 0.280261291822157 2.94276004973056 25.9765382296694 -1.02266398109426 -14.5083140974049 -0.925447551384255 0.342798049115856 -14.1694378823854 -20.9833478909101 2.87698496490285 -21.326145940026 13.1467739012911 -40.4848523270743 47.6095098967839 -343.831212707137 372.658660410463
-0.0238500005230308 0.0572499968335032 0.00564999974519014 16 0.201111962000529 -0.073942404682554 -0.240949246789581 0.322443855575521 0.145252756383935 25.9099130752719 0.0326939543183795 -12.1029761016568 0.777731508673526 0.737472524490159 -6.74891104529472 -18.8361069330662 -0.892841837342407 -19.5735794575564 6.7816049996131 -38.0128891769287 43.2908179956156 -318.651455416516 326.98770734524
-0.0210500004813075 0.0572499968335032 0.00564999974519014 16 0.190991673072179 -0.107148862932372 -0.247462575583098 0.330448822550226 -9.10948033041961 23.4400266393022 1.26925838905119 -15.5211902343436 3.20077189958835 0.923849385291829 9.86956947882974 -13.9447824739307 -3.90383239352339 -14.8686318592225 -8.60031108977855 -38.9612168736457 42.5795488994577 -261.754862383297 358.082196140634
-0.0182500004395843 0.0572499968335032 0.00564999974519014 16 0.148982315063477 -0.157828007769616 -0.18561654053318 0.285585206825747 -21.0528574644265 17.5527324087984 2.00069569440499 -23.3292120922399 6.5606809155588 0.560736022259341 28.6837394879306 -5.05935635763788 -4.67521074901181 -5.62009237989722 -26.6830437935256 -40.8819445010382 49.1416691884978 -116.796494111539 284.573845822427
-0.015450000397861 0.0572499968335032 0.00564999974519014 16 0.0657549003760021 -0.236761278401439 -0.0764688510696093 0.257346255184815 -30.5421109771556 7.96317653247285 2.02656140458174 -26.4078180434827 10.665996532446 -0.590555477482598 40.7070098289745 6.71338889838592 -2.95645303796152 7.30394437586852 -38.6804484243928 -34.3709945759555 52.2579176957736 14.1159536996923 -135.239760354231
-0.0126500003561378 0.0572499968335032 0.00564999974519014 16 -0.0350107800960542 -0.307675062113558 0.0591829997386473 0.315265484992539 -33.5075566785259 -4.35486052141392 1.51382903308356 -13.992078575579 14.8495831881288 -2.56505294585552 44.3259114995193 18.5850662180375 -0.0397137219256445 21.150119163893 -42.8120824664358 -9.63721805416508 48.7142475830562 233.040227700125 -577.195996253497
-0.0098500003144145 0.0572499968335032 0.00564999974519014 16 -0.13775159517924 -0.320082633295096 0.187602280297627 0.395756250341568 -28.8594884134124 -16.4623057825401 0.753078225954198 14.310636476383 18.1076561789071 -5.02133408901815 41.5868001632209 27.094947267724 2.51546719867539 32.1162813567421 -40.8337219372668 30.7729422589232 60.3806454975968 24.6673131668793 -209.302832718253
-0.00705000027269125 0.0572499968335032 0.00564999974519014 16 -0.210754146575928 -0.233139799096389 0.301676371469318 0.435637589430189 -18.4693628919574 -24.668193217285 0.0538153299759344 45.8178379157248 18.9298322723726 -7.06812705854556 31.9725037158421 30.2161738385663 3.70077496536354 37.2843008971119 -31.9186883858661 70.4860311330098 85.8906417867746 -1004.40226075845 994.17657541283
-0.004250000230968 0.0572499968335032 0.00564999974519014 16 -0.249439740975698 -0.0670196241590505 0.370002808063291 0.451235960862124 -6.25921960995053 -26.6305575584312 -0.527363581973442 63.49889960156 16.0340312995663 -7.61091348707082 15.9508396716863 28.4755053167562 3.78965620957564 36.0864188038271 -16.4782032536598 90.1294571599912 98.4737520992717 -1628.3572237773 1852.83025282777
-0.00145000018924474 0.0572499968335032 0.00564999974519014 16 -0.246963699658712 0.121537026576698 0.39096820487893 0.478140622625265 6.7288840517355 -22.5822047055054 -0.702563290259795 60.1530568133587 9.74838411265099 -6.23678593588408 -6.45627466253064 23.9236130774473 3.27060830318699 30.1603990133314 5.75371137227085 82.7352615188641 88.2489567178762 -1332.17709217409 1622.54559108648
0.0013499998524785 0.0572499968335032 0.00564999974519014 16 -0.205800839662552 0.269579012024721 0.330158278950403 0.473319467684911 17.3020887493066 -15.0808874458321 -0.241276378740292 40.1936061901349 2.33868611112368 -3.67149724724982 -26.6254137680641 19.1721696661464 1.89023099824532 22.8436669133962 26.3841373893238 55.274493635967 65.3699125786585 -336.121550208905 747.711491854341
0.00414999989420176 0.0572499968335032 0.00564999974519014 16 -0.140100831190745 0.346210040386844 0.235028608354429 0.441280049073168 23.8780747142768 -6.97390857803531 0.684126438578932 15.5660813512919 -2.84585402488844 -0.986390275020685 -35.8917428529999 15.410996123182 -0.10985763431171 16.3973863982027 36.5758692915788 22.5399899293272 45.9860809500091 -0.451828757675921 78.0481101374026
0.006949999935925 0.0572499968335032 0.00564999974519014 16 -0.0609194898605347 0.358555119122999 0.121556272723149 0.383469536120564 26.1387287691141 -0.0113335569429843 1.64562282139482 -6.51173282064853 -4.05260547089151 1.15306715362104 -36.3459069770826 12.2836381627735 -2.09510244647236 11.1305710091525 37.9915297984774 -6.50039926370555 40.1185884348635 46.6823916837 -106.628652968458
0.00974999997764826 0.0572499968335032 0.00564999974519014 16 0.0151848816871643 0.314413296074199 0.0250130856902494 0.315771999765405 23.1954391545926 5.58718746214802 2.01058741323838 -22.3146324827158 -2.0756968761425 2.62729224952836 -30.2985869759782 7.94843204748602 -3.15012097973248 5.32113979795766 32.3091743892165 -27.9018199448638 43.0198655820519 45.9334493731172 50.0346946965875
0.0125500000193715 0.0572499968335032 0.00564999974519014 16 0.0744621860980987 0.238895003034656 -0.053951879964831 0.255980946527619 19.1361761269165 10.6886454580831 1.58744187700162 -32.0032175154699 0.763315930451706 3.26749931685674 -25.2941912883683 0.358854494212719 -3.05604978781322 -2.90864482264403 26.8816331653699 -42.691862973553 50.5339250454033 18.6235145164249 334.844656828223
0.0153500000610948 0.0572499968335032 0.00564999974519014 16 0.12593555967013 0.137057593920423 -0.125499697113022 0.224487690567088 13.6634693026782 15.7455731290978 0.655138518300868 -35.8648007242596 2.52887847825139 2.81320417489043 -19.648134734227 -10.5714264514548 -2.79730262177233 -13.3846306263452 20.3032732525279 -51.6103738533574 57.0526242258306 -363.567817032131 596.582030026834
0.018150000102818 0.0572499968335032 0.00564999974519014 16 0.154538112481435 0.0360944379226809 -0.177128865927746 0.237822353455533 7.71891255078536 20.2886022501564 -0.144544321486333 -34.0087219850262 2.87198071293611 1.3569907065742 -12.3423273739403 -22.312887335454 -3.30509342754924 -23.6698780420282 12.197783052454 -54.2973242351826 60.4751887720888 -727.821722910301 705.648477058461
0.0209500001445413 0.0572499968335032 0.00564999974519014 16 0.173536030054092 -0.0575033772791115 -0.209292725453943 0.277893571450255 0.191025217247724 23.1695471899894 -0.360078306026655 -29.1153286921287 2.40273381543313 -0.556928221059893 -4.99132772178664 -31.2066456079272 -4.76384400840105 -30.6497173868673 4.63124941575998 -52.2848758821181 60.7829079022574 -651.498907006755 643.514570951782
0.0237500001862645 0.0572499968335032 0.00564999974519014 16 0.159144619703293 -0.13057989849709 -0.216546083466771 0.298781401925912 -8.43214903411757 23.4910231131092 -0.149714966690251 -24.203217742906 1.96987368950477 -2.11278490852158 2.26156878764611 -35.6449745721646 -6.18366002136695 -33.532189663643 -2.41128375433636 -47.6942408560152 58.3520577513256 -491.218335966538 516.93701893248
0.0265500002279878 0.0572499968335032 0.00564999974519014 16 0.127138033310572 -0.19462801995532 -0.201882538838569 0.307897231481082 -14.7573965043501 21.6223018895054 0.0774257317001266 -21.561693812069 2.13862446607066 -2.8886434759582 8.09035131668872 -36.690050168995 -6.39848463443478 -33.8014066930368 -8.01292558498859 -43.1839957015744 55.4220132764251 -301.002232327219 408.783067202642
0.029350000269711 0.0572499968335032 0.00564999974519014 16 0.0735220603148143 -0.250982688611063 -0.171247506649039 0.312607600465641 -16.9351537213641 18.7114265457458 0.0384362896587491 -18.8884371381637 3.06092160624037 -2.9465902522614 11.790278663159 -36.6897852686168 -5.37666308214945 -33.7431950163554 -11.7518423735002 -37.5998636839095 51.8696323307961 -121.041088973357 267.626559554596
0.0321500003114343 0.0572499968335032 0.00564999974519014 16 0.027009874979655 -0.298691501043892 -0.133486325300958 0.328275410569575 -11.9646016203766 16.098903932214 -0.134007675084201 -12.6646970276967 4.23288670807313 -2.67555008560172 10.2247595101013 -36.748074319597 -3.98415643843497 -34.0725242339953 -10.3587671851855 -28.7636009599107 45.7775677101137 -56.2804810660974 87.0961822199487
0.0349500003531575 0.0572499968335032 0.00564999974519014 16 0.00209362904230748 -0.320281307434974 -0.111810685477491 0.339243465024412 -8.33041855389724 14.8532432611607 -0.251335836158338 -7.95635717699319 4.92384205468051 -2.45677791370894 7.58009817250577 -36.8270008709004 -3.13862014552221 -34.3702229571915 -7.8314340086641 -22.8096004381539 41.9871582380535 1.60586597903707 -0.718619013923099
-0.0350500006899238 0.05444999679178 0.00564999974519014 16 0.0880215227603913 0.0901672034229462 -0.0291201765726631 0.129328642325651 -1.5376312990816 37.8004814783502 -1.65612562678733 -9.86769804843755 -3.25957373519785 -0.736207577617779 -5.14680679756325 -36.3725740169831 7.75679383428385 -35.6363664393653 3.49068117077593 -47.6681795267878 59.6187118901004 -384.216167023959 305.503306236792
-0.0322500006482005 0.05444999679178 0.00564999974519014 16 0.0837385217348734 0.0625044523949926 -0.0443579137519313 0.113519034104257 -0.873744326913668 38.7089451831334 -1.74743901285656 -13.832841219423 -2.59059610850395 -0.559423334427846 -7.76428214955067 -35.1288858123147 6.86918784656894 -34.5694624778869 6.01684313669411 -52.5417864025564 63.1814011851073 -525.390046746423 480.701477956605
-0.0294500006064773 0.05444999679178 0.00564999974519014 16 0.0830161110560099 0.0134361163691695 -0.0742221025268858 0.112165611581541 0.438939625627189 40.6366208514743 -1.71358224466781 -18.2456337583343 -1.33342014807307 -0.172914426257558 -14.0307311431248 -33.3589058704168 4.7301124933429 -33.1859914441592 12.317148898457 -58.8822546098087 68.7032902636614 -704.35545059235 706.813568961692
-0.026650000564754 0.05444999679178 0.00564999974519014 16 0.0869049421946209 -0.039073812016674 -0.128486197904373 0.15996229185432 1.99769985442713 42.2601875775409 -1.30214408938016 -16.0857542276651 0.22390126208246 0.372227489831995 -15.4764415392485 -31.9003317761273 1.65356149910688 -32.2725592659593 14.1742974498684 -58.345941805206 68.166543956025 -623.343525758545 675.629456125514
-0.0238500005230308 0.05444999679178 0.00564999974519014 16 0.0950236030419667 -0.0762987714757522 -0.168739150041171 0.208143912763269 1.51045176477695 41.9066739188488 -0.530218653285367 -14.2175845131193 2.2127707437473 0.890018166871893 -9.71976311511807 -29.7697170072847 -1.39215558264831 -30.6597351741566 9.18954446183271 -56.1242584319681 64.6095927312946 -547.916762976415 615.312645829189
-0.0210500004813075 0.05444999679178 0.00564999974519014 16 0.0945862921078999 -0.119383775218351 -0.189632209603054 0.243227110658009 -3.58918451101093 37.4910655270169 0.313968277691848 -18.5297689478641 4.91291747781544 1.04858629013608 2.25870909776153 -24.0793290155287 -3.42482765518 -25.1279153056647 -1.94474082006968 -56.0208344748809 61.429048826495 -696.456226901466 697.073948512946
-0.0182500004395843 0.05444999679178 0.00564999974519014 16 0.071407562494278 -0.182667089779473 -0.158839300042018 0.252381118366083 -10.5533465175731 27.3585529912585 0.833395306197463 -26.8095792270932 8.04195431021881 0.592819111542105 15.6947581591988 -12.3649134220214 -3.53147100228757 -12.9577325335635 -14.8613628530014 -54.1681322183517 57.6450300224119 -611.629549241109 651.720891406543
-0.015450000397861 0.05444999679178 0.00564999974519014 16 0.0284411418437958 -0.275356056546637 -0.0972379646195138 0.293402587223834 -15.4178005430146 11.3242874865896 0.977212122848039 -29.8184931098108 10.8276808945131 -0.628151765708069 24.9373881385004 4.62094434116068 -1.59091203767695 5.24909610686875 -23.9601760156523 -41.1427805964004 47.8995974914584 -153.585796369691 156.570176966582
-0.0126500003561378 0.05444999679178 0.00564999974519014 16 -0.0231282472610475 -0.359272341178421 -0.00765106670347449 0.360097305986719 -16.4131253759003 -8.57641719629029 0.811181755268281 -16.8567040526499 12.9193947822293 -2.65167970182336 29.3891737587649 23.4556264527377 1.26900389873706 26.107306154561 -28.5779920034966 -8.28028685635958 39.5835346075044 249.989238018417 -322.694483593153
-0.0098500003144145 0.05444999679178 0.00564999974519014 16 -0.0715618419647217 -0.380128799004791 0.0845061588085567 0.395929655285867 -14.5317067725087 -27.8911848786935 0.308177899411939 12.1641807258263 14.6724030190786 -5.23288046134387 31.882600876672 39.5866824303545 3.706995570258 44.8195628916984 -31.5744229772601 40.0553656045198 67.898230594483 -274.44135035379 323.906779616592
-0.00705000027269125 0.05444999679178 0.00564999974519014 16 -0.11166050752004 -0.297821088611624 0.190353902827095 0.370675165182337 -11.1897175617274 -41.2927244150824 -0.473164094745799 45.8496244678976 15.9648961239971 -7.59144083322027 28.8273522229782 49.3148066389249 4.89212269701551 56.9062474721451 -29.300516317724 87.1423488829799 108.123217796592 -2030.02017526499 2125.98449340445
-0.004250000230968 0.05444999679178 0.00564999974519014 16 -0.139533240000407 -0.121647764655839 0.259821128608698 0.31902150802457 -7.48949455438196 -45.3797304597348 -1.41103916605895 66.8639758602559 15.4638342859347 -8.55661576894799 18.7769922815428 51.3744740437424 5.02191990708906 59.9310898126904 -20.1880314476017 112.243706319991 128.832999454 -3235.10676982461 3424.58610102817
-0.00145000018924474 0.05444999679178 0.00564999974519014 16 -0.156679905255636 0.0871788607702668 0.300492729272228 0.349920886518065 -1.40182654102759 -40.0670977754661 -1.91222954175527 66.5489653761826 11.9884966513302 -7.52633136265032 0.0786761768143729 46.5652628338499 4.42523113550696 54.0915941965002 -1.99090571856965 106.616063151649 119.569432507876 -2892.52437187942 3047.08261697021
0.0013499998524785 0.05444999679178 0.00564999974519014 16 -0.144643451372782 0.266783976869483 0.253196560627354 0.395226411886717 6.28606457179924 -28.4216802648689 -1.47223376382183 46.8746823639603 6.32120991620822 -5.04186100928244 -19.6379830781271 37.7943247158688 2.74161015317869 42.8361857251513 18.1657493143053 75.2963626288292 88.512572444608 -1549.13135080807 1568.1990305273
0.00414999989420176 0.05444999679178 0.00564999974519014 16 -0.113335889577866 0.363779944746445 0.173705831825015 0.418753612612659 12.9962059373512 -14.6307661782327 -0.290033695888861 19.0007281032555 1.39002712643134 -2.21027372933801 -29.3892221052227 28.065546821119 0.355483195339124 30.2758205504571 29.0991884093338 33.6314942814883 53.8002368367572 -147.267016249389 354.683029118669
0.006949999935925 0.05444999679178 0.00564999974519014 16 -0.0609731570879619 0.380151031732094 0.0693701262880738 0.3912093393996 17.2621454126979 -1.83488906598328 0.941311438688535 -6.88800164004749 -0.461599360130234 0.0546758884774182 -30.4442802414048 18.7887572980726 -1.81465036234761 18.7340814095951 31.3855916800934 -5.05311257406421 36.8992563347427 11.0261244151142 -23.4637739194889
0.00974999997764826 0.05444999679178 0.00564999974519014 16 -0.00633277257283527 0.324936454606553 -0.0141828394266001 0.325307479893925 15.8709548887113 8.76765753722322 1.44528125343514 -24.8940725309483 0.517200912752242 1.55108456392024 -22.0654053394496 8.98915504115376 -2.76224239021043 7.43807047723352 23.5106865928848 -33.6617300681715 41.7275610079907 -33.3735710294316 199.1508934202
0.0125500000193715 0.05444999679178 0.00564999974519014 16 0.0346229040622712 0.236843333376261 -0.0630669156941197 0.247529686917859 12.3338171527427 17.7930427813431 1.09545712811281 -33.9316833577447 2.18609399666542 2.26436377445394 -13.4435155514454 -3.50512477902436 -2.51453748964648 -5.7694885534783 14.5389726795582 -51.7247261390879 54.038097846883 -403.028059825156 616.863588841688
0.0153500000610948 0.05444999679178 0.00564999974519014 16 0.065856599410375 0.130292480106776 -0.0921890298628326 0.172661632348717 7.24003460882149 25.9619087783589 0.337695777706023 -36.255818492278 2.74001505915897 2.13697569432751 -4.96276141809652 -19.1108928864102 -2.33726169738147 -21.2478685807377 5.30045719580254 -62.2177272706369 65.9591718598118 -965.983510871052 980.297485583136
0.018150000102818 0.05444999679178 0.00564999974519014 16 0.0757261689503987 0.029381780140878 -0.0906665458922119 0.121729882166113 2.58427119496107 32.9769557069814 -0.218199828847393 -33.2423984631628 2.02160707062922 1.27172271013244 0.899035921170105 -35.2961686136519 -3.12911996386844 -36.5678913237844 -1.1172357500175 -66.2193541701441 75.65356408194 -1137.31904799264 1132.12824569247
0.0209500001445413 0.05444999679178 0.00564999974519014 16 0.0804102500279744 -0.0604803939986353 -0.0895027442097974 0.134664128812672 -2.11193615173253 37.5336134919529 -0.260405974751058 -28.0758492598273 0.685051013967421 -0.0313571408062602 3.61000033328745 -48.2451016913633 -4.83380119282003 -48.213744550557 -3.8704063080385 -65.6094627517803 81.5116360475786 -1051.45567518677 1058.66580686415
0.0237500001862645 0.05444999679178 0.00564999974519014 16 0.0642600504557291 -0.132944934827392 -0.0770762754474223 0.16656668940001 -7.22544511864037 38.3083950223362 0.0228498393723968 -23.5012696041997 -0.623516431111824 -1.22736258532849 5.68561805516892 -55.8321500497227 -6.29978437082845 -54.6047874643943 -5.66276821579652 -61.809664626536 82.6691260334979 -782.763716829969 885.591661087269