TITLE="DynamicStudio Exported Data"
VARIABLES= "X (m)[m]" "Y (m)[m]" "Z (m)[m]" "Status[-]" "U[m/s]" "V[m/s]" "W[m/s]" "Length[m/s]" "dU/dX[1/s]" "dU/dY[1/s]" "dU/dZ[1/s]" "dV/dX[1/s]" "dV/dY[1/s]" "dV/dZ[1/s]" "dW/dX[1/s]" "dW/dY[1/s]" "dW/dZ[1/s]" "Vorticity X[1/s]" "Vorticity Y[1/s]" "Vorticity Z[1/s]" "Vorticity Magnitude[1/s]" "Lambda-2[1/s²]" "Q-Criterion[1/s²]"
ZONE T="DynamicStudio Data" I=26 J=26 F=POINT
-0.0350500006899238 0.0600499968752265 0.00564999974519014 16 0.202466954191526 0.34553634125002 -0.417650645456742 0.57863658051879 0.725559098921538 13.6185849569216 -3.78384783192703 -9.71049011389589 -5.09501398405784 0.187044549955663 5.23428666830044 -18.4432225001977 0.354120285902434 -18.6302670501534 -9.01813450022748 -23.3290750708175 31.1874869760945 -154.294676416962 150.254536734825
-0.0322500006482005 0.0600499968752265 0.00564999974519014 16 0.20621779580911 0.317786281819766 -0.402504123964657 0.552741775180559 -0.569408839687298 13.8830066437689 -2.88547793508875 -15.7098823961653 -5.37577922575368 0.0638512441448365 8.68874976678971 -17.9131068320685 0.361867601563551 -17.9769580762133 -11.5742277018785 -29.5928890399343 36.5085311988681 -238.377349709974 245.225016837364
-0.0294500006064773 0.0600499968752265 0.00564999974519014 16 0.202403473059336 0.256449971367256 -0.367187158313269 0.491487703763707 -1.1817351832475 14.3500857104726 -1.43479253318766 -23.9882658839966 -5.51185696054998 -0.244815510653524 14.8581846835931 -16.5192109115089 -0.00940922756682627 -16.2743954008554 -16.2929772167808 -38.3383515944692 44.7229947032962 -367.663692389359 368.084461693836
-0.026650000564754 0.0600499968752265 0.00564999974519014 16 0.203345561822255 0.182842644264068 -0.31663972850889 0.418379693274505 -0.972380431258183 14.8019628670188 -0.111364193138613 -27.2308641873708 -4.81419766806393 -0.576115929875094 15.8438617883737 -14.552519463125 -1.356878498273 -13.97640353325 -15.9552259815123 -42.0328270543895 47.0814999976592 -414.772524288736 408.983656146213
-0.0238500005230308 0.0600499968752265 0.00564999974519014 16 0.19955396493276 0.10584120368391 -0.278017570959249 0.358214900694715 -0.12397172247365 14.8390162239808 0.519184807768767 -27.397602288986 -3.04343318229651 -0.756151446253699 12.4435393660222 -12.4625925653331 -3.52734562118729 -11.7064411190794 -11.9243545582534 -42.2366185129667 45.4220534400999 -404.461312157834 402.219192353587
-0.0210500004813075 0.0600499968752265 0.00564999974519014 16 0.202464468081792 0.0334371389903875 -0.247490930027949 0.321499087938994 1.86336857678268 14.2140010885109 0.511370118597144 -27.6442027697472 -0.841545790748874 -0.904700567921575 7.2769477580287 -10.26617628363 -5.58401264165048 -9.3614757157084 -6.76557763943155 -41.858203858258 43.4225690005838 -371.835541259958 372.651717770825
-0.0182500004395843 0.0600499968752265 0.00564999974519014 16 0.20791602174441 -0.0453240358282346 -0.236692429306374 0.318287050337795 0.789340483039667 12.8823350910187 0.26643834019806 -28.3182209938525 0.783046800629425 -1.13594896011606 2.69818346303485 -8.02405285103935 -7.17920134875942 -6.88810389092329 -2.43174512283679 -41.2005560848712 41.8431019554862 -344.710968750629 344.300603640995
-0.015450000397861 0.0600499968752265 0.00564999974519014 16 0.203252979119619 -0.123586320059452 -0.231514004425456 0.331939883521019 -3.65543932425299 10.9520710318853 0.0970931857074887 -28.352358237399 1.34691151291497 -1.24950112808944 -1.3800735016168 -6.19590853856264 -8.6866012309939 -4.9464074104732 1.47716668732429 -39.3044292692843 39.6419869314935 -291.860180442151 318.038949578917
-0.0126500003561378 0.0600499968752265 0.00564999974519014 16 0.183396959304809 -0.20399048001503 -0.245070846228627 0.36784001996823 -12.1013498584465 8.64184761462787 -0.00579173830651783 -26.0903424911201 1.42783007349148 -0.886527099611025 -2.62215115918826 -5.62626296231784 -9.98632168831669 -4.73973586270681 2.61635942088174 -34.732190105748 35.1516068225804 -79.6926839576557 309.776273484205
-0.0098500003144145 0.0600499968752265 0.00564999974519014 16 0.130607969760895 -0.268176267175004 -0.2487379154334 0.388390914691803 -22.850606033193 5.9548511568621 -0.401936536430848 -19.3007168313466 1.92294594515276 0.070343912344956 7.35004588654078 -6.60231333028655 -9.99823324839079 -6.67265724263151 -7.75198242297163 -25.2555679882087 27.2481430664685 108.186441977774 283.650727175289
-0.00705000027269125 0.0600499968752265 0.00564999974519014 16 0.0487624581654866 -0.30821066907413 -0.204920800238421 0.373315052238479 -34.6357865508457 2.56182750979229 -1.08423531805078 -6.17772541056147 3.13786448786739 1.22982031794616 32.2364089933987 -7.41821133664937 -7.7834036170927 -8.64803165459553 -33.3206443114495 -8.73955292035375 35.5166661452997 10.2297399680942 196.379822975757
-0.004250000230968 0.0600499968752265 0.00564999974519014 16 -0.0720642137527465 -0.297787474725095 -0.0613257570347438 0.312460364658999 -41.8704582574572 -2.11355059791327 -1.50382574476396 12.6369344287503 4.65251855741584 1.90625915326946 59.1793029623697 -4.71558035675167 -3.82731275734203 -6.62183951002113 -60.6831287071336 14.7504850266636 62.8002203555437 3.27068332510874 72.334889253339
-0.00145000018924474 0.0600499968752265 0.00564999974519014 16 -0.196274796326955 -0.234239973639293 0.145569965661271 0.338500776699771 -37.5652457750166 -8.17220930900621 -0.963271087435013 33.5670783779951 5.86868900942721 1.65424923875359 67.2802381503418 3.21128529773348 0.0536820123741366 1.5570360589799 -68.2435092377768 41.7392876870013 80.0110558047683 -23.7150266352351 111.653752334783
0.0013499998524785 0.0600499968752265 0.00564999974519014 16 -0.292799370288849 -0.109314528258789 0.341634745369665 0.463028548335612 -19.1338817186848 -14.2169101262695 0.46890927223429 48.7784072032711 6.39268163192665 0.561420611915948 45.9863594343421 13.8561481236339 2.52396812109423 13.294727511718 -45.5174501621078 62.9953173295406 78.8479426131101 -219.599142753904 509.660476764097
0.00414999989420176 0.0600499968752265 0.00564999974519014 16 -0.31049724817276 0.0366153808696739 0.42660164934777 0.528902821381514 3.82461960804107 -17.9658912756492 1.75709014594161 52.8879115311017 5.58004908287009 -0.777727074074871 10.1107531883802 22.0849797930688 3.53545360217549 22.8627068671437 -8.35366304243856 70.8538028067509 74.9182783017434 -895.468716770921 1004.18038522077
0.006949999935925 0.0600499968752265 0.00564999974519014 16 -0.273342938820521 0.181579141340529 0.409333150489256 0.524634134290233 20.9034550008041 -17.816637805897 1.93736616532621 45.3401361172265 2.89302444573088 -1.59622576010721 -21.6281679190492 24.2520896688454 3.34514123346594 25.8483154289526 23.5655340843754 63.1567739231235 72.1958994650875 -565.747115723285 1028.49906520639
0.00974999997764826 0.0600499968752265 0.00564999974519014 16 -0.189723507563273 0.283032865667095 0.301406965512627 0.454916224407713 27.9665891151512 -14.1289761402007 0.964692859239132 29.6127332581156 -1.33206697594657 -1.48638540810496 -37.0929870636464 20.7945148294673 2.44196057690408 22.2809002375723 38.0576799228856 43.7417093983163 62.1141099718592 72.5691996385875 512.876688067793
0.0125500000193715 0.0600499968752265 0.00564999974519014 16 -0.109735354185104 0.339465873672011 0.189058431595719 0.403759851772642 28.6563581247137 -8.5652397644874 -0.400147935887791 12.9661184446243 -5.56245139757565 -0.546616405544169 -38.4769127283647 14.8215582024687 1.65309173194062 15.3681746080129 38.0767647924769 21.5313582091117 46.363996745029 0.643842557667782 -17.4600900768452
0.0153500000610948 0.0600499968752265 0.00564999974519014 16 -0.0202760310967762 0.350888651953234 0.0732984327326994 0.359035685897189 27.2202857315986 -2.75647684017388 -1.46632476165689 -2.0764578349618 -8.01454100035312 0.676504438924599 -31.1441985497902 8.67320810539722 2.16773241985704 7.99670366647262 29.6778737881334 0.680019005212082 30.7438756171241 72.1834700374158 -233.783861766008
0.018150000102818 0.0600499968752265 0.00564999974519014 16 0.0514189002911249 0.327544178580865 0.00655010997841601 0.331620258986226 22.9918047040345 2.17931210585609 -2.03544583154266 -13.5466763313531 -8.20129451120948 1.62243325733395 -19.0823772628748 2.8388024844084 4.20008777381547 1.21636922707446 17.0469314313322 -15.7259884372092 23.2246450489206 55.409053761054 -140.365597786938
0.0209500001445413 0.0600499968752265 0.00564999974519014 16 0.115919995705287 0.277811763075879 -0.039628331871548 0.303623493482575 18.1714807604979 5.80457724732814 -2.12248575977943 -23.0609817725598 -6.79533687740516 2.06673055919787 -9.87009780722772 -3.01934896436052 6.35438083086891 -5.08607952355839 7.74761204744829 -28.8655590198879 30.3168961948343 19.572273948952 67.9573061191661
0.0237500001862645 0.0600499968752265 0.00564999974519014 16 0.158795787493388 0.20228957859256 -0.0570242508345594 0.263417806755814 12.1358072163513 8.1235530802693 -1.93317602981886 -29.5057423843449 -4.53554995834799 2.13734652255632 -4.25498023936078 -8.74555106451611 7.12948972889853 -10.8828975870724 2.32180420954192 -37.6292954646142 39.240184910897 -89.2780574102955 249.301507924754
0.0265500002279878 0.0600499968752265 0.00564999974519014 16 0.187446491122246 0.117273971440882 -0.0744133686571028 0.233295351103396 8.49992120340978 9.67156068453042 -1.5355762988941 -30.704168134678 -1.742975634671 2.07911485469875 -5.25881595209639 -13.3473737436224 5.66759131985204 -15.4264885983211 3.72323965320229 -40.3757288192084 43.3824681371584 -267.705645726555 340.113085767789
0.029350000269711 0.0600499968752265 0.00564999974519014 16 0.209978733460108 0.0358806157077197 -0.0986591140906482 0.234759681125673 4.94339131533933 10.7736574920538 -1.02030977505552 -25.5645887515596 1.27762516990653 2.01576883938734 -5.58682122676633 -15.9568097682128 2.62277543400596 -17.9725786076002 4.56651145171081 -36.3382462436134 40.7962590038162 -309.235304773173 324.521205113375
0.0321500003114343 0.0600499968752265 0.00564999974519014 16 0.217530897458394 -0.0202887695942384 -0.114614942932579 0.246714228742772 2.22948523730095 11.3549582505599 -0.657604080952093 -15.1128929814677 3.80421052158965 1.96669232519188 -4.29456740132739 -16.5499947604874 -0.479551953936927 -18.5166870856792 3.63696332037529 -26.4678512320276 32.5060356189963 -193.163492893404 206.918852084957
0.0349500003531575 0.0600499968752265 0.00564999974519014 16 0.223433292309443 -0.0450502142449841 -0.127183194827909 0.261012495797404 2.02880452995545 11.5010339925453 -0.45839105912018 -9.16148797301029 5.02488728954234 1.9039216442125 -3.90860294553495 -16.4087109093338 -2.19612220149092 -18.3126325535463 3.45021188641477 -20.6625219655556 27.8243829595452 -101.993402332396 129.519560698174
-0.0350500006899238 0.0572499968335032 0.00564999974519014 16 0.164649040699005 0.35903565163307 -0.364516066213061 0.537482900448126 0.128835295846384 20.481380739778 -3.86241970238884 -9.1357717555744 -5.65885033882975 -0.310575704048815 4.19599690643177 -32.9036581184854 1.86855105765999 -32.5930824144365 -8.0584166088206 -29.6171524953524 44.7707808894208 -192.228145638349 182.038668899269
-0.0322500006482005 0.0572499968335032 0.00564999974519014 16 0.167023646434148 0.332763339349525 -0.350451508010738 0.511316534008247 -1.22349422730621 21.2462334994729 -2.91752833073474 -15.2339818071939 -6.23273530000969 -0.370148174375575 7.1763370036232 -31.221853990739 1.6423019818761 -30.8517058163634 -10.0938653343579 -36.4802153066668 48.8315469546927 -312.133638573602 328.425523995897
-0.0294500006064773 0.0572499968335032 0.00564999974519014 16 0.162750615676244 0.272038806812488 -0.319645000651168 0.450184186479539 -1.94408517863604 22.5069758602457 -1.30190669082457 -23.7857225190501 -6.86582000899543 -0.532414600920107 12.4538332045949 -27.7697217220941 0.727051018233706 -27.237307121174 -13.7557398954194 -46.2926983792959 55.4446138278557 -514.76046373258 543.715894403369
-0.026650000564754 0.0572499968335032 0.00564999974519014 16 0.161621958414714 0.19743423029704 -0.276548134658175 0.376272246541926 -1.43347321869154 23.5797929242189 0.194210059530412 -28.0595925998256 -6.47218805898238 -0.705185626551372 13.5534403522136 -23.7305126230637 -1.16022249962938 -23.0253269965123 -13.3592302926832 -51.6393855240445 58.0969952287566 -631.495403046678 660.7227865094
-0.0238500005230308 0.0572499968335032 0.00564999974519014 16 0.158229042689006 0.114280763571345 -0.242913607265121 0.311614414729618 -0.00805890264310121 23.9126217728344 0.887073306009524 -29.2521181240295 -4.37919864007309 -0.804241503476617 10.66987114363 -20.3630652637754 -3.48359759772412 -19.5588237602988 -9.78279783762044 -53.1647398968639 57.4868705768489 -670.747166406539 688.971788032885
-0.0210500004813075 0.0572499968335032 0.00564999974519014 16 0.162248167594274 0.0354461711602926 -0.218997185377715 0.274846622939023 2.54333398639446 23.325081921882 0.823333164205175 -29.6447453188781 -1.25810271974774 -0.958832559001225 5.68274194050646 -17.7273299844287 -5.28554720124663 -16.7684974254274 -4.85940877630129 -52.9698272407602 55.772743858248 -663.056900820964 659.796856109805
-0.0182500004395843 0.0572499968335032 0.00564999974519014 16 0.171775250434876 -0.0489557766735864 -0.213142919164772 0.278088670610219 2.09033077513158 21.7880148860091 0.467640305331477 -29.5094810783652 1.39216905010315 -1.24849317689873 1.04770641689004 -15.2300215982918 -6.38294898895969 -13.9815284213931 -0.58006611155856 -51.2974959643743 53.1719165152714 -613.709770224055 604.129960286726
-0.015450000397861 0.0572499968335032 0.00564999974519014 16 0.172223101059596 -0.127698606740062 -0.21365591476361 0.302682309716659 -1.71575476297961 19.1907613856882 0.205695413181047 -28.4680453527815 2.51116134590316 -1.41865182551032 -2.70544978712193 -12.8635497041341 -7.37009339761308 -11.4448978786238 2.91114520030297 -47.6588067384697 49.1001253925505 -521.520323256344 518.460307978603
-0.0126500003561378 0.0572499968335032 0.00564999974519014 16 0.159214292764664 -0.207768721872126 -0.228419838390158 0.347408484897987 -9.53260692089458 15.4524083592821 0.0600265330072185 -26.0023132038314 2.51184632047145 -1.06794960116328 -2.94219836747135 -11.4080080690942 -8.34772507011067 -10.3400584679309 3.00222490047857 -41.4547215631135 42.830177484439 -346.025580237601 424.454729868166
-0.0098500003144145 0.0572499968335032 0.00564999974519014 16 0.113245828946432 -0.272944955625571 -0.228968584320198 0.373831752504793 -19.5202443146101 10.4489691890693 -0.314922572875754 -19.6448505733319 2.60291215128092 -0.0680597925235146 7.58638544448087 -10.9989502960949 -8.36924781418212 -10.9308905035714 -7.90130801735662 -30.0938197624012 32.9780688257833 81.7341044300387 297.684840219755
-0.00705000027269125 0.0572499968335032 0.00564999974519014 16 0.0411208963394165 -0.316754953124328 -0.179664215669812 0.366474908877539 -30.373103889798 3.98693269179531 -0.892046506395673 -7.28715152697114 3.65149916210434 1.14836748842514 30.9532383613851 -9.68015321990051 -6.55403211573814 -10.8285207083256 -31.8452848677808 -11.2740842187665 35.4751180972324 11.0934795014889 132.00837620082
-0.004250000230968 0.0572499968335032 0.00564999974519014 16 -0.0674605615933737 -0.311347631261063 -0.0429900716850534 0.321459828168084 -36.5035064400848 -4.08424241738959 -1.1566635581071 11.1317436112789 5.76123140613589 1.8126676072185 53.9594153603469 -4.07797197916344 -3.34733705229142 -5.89063958638195 -55.116078918454 15.2159860286685 57.4805012235153 5.97738907625786 7.86924506671377
-0.00145000018924474 0.0572499968335032 0.00564999974519014 16 -0.172758181889852 -0.250980425067246 0.138643625129674 0.334751576495048 -31.7906968880234 -13.2061902180574 -0.481488601713485 32.1872248226732 8.24088562825871 1.39672297328324 58.5592122737226 7.22065294798344 -0.284761777357864 5.8239299747002 -59.0407008754361 45.3934150407306 74.7013028619512 -56.7457026535208 187.903543994097
0.0013499998524785 0.0572499968335032 0.00564999974519014 16 -0.250502296686173 -0.128604527485052 0.299787015327165 0.411294030704885 -14.5963387074051 -21.5033818439091 0.949028359687336 48.3699012243349 9.85458095501703 -0.0124963198082148 37.0420366152893 21.3377140350219 1.65142889008573 21.3502103548301 -36.093008255602 69.873283068244 81.4911799759299 -869.268775673286 853.557678248058
0.00414999989420176 0.0572499968335032 0.00564999974519014 16 -0.256306165854136 0.0187843667828323 0.358428238543371 0.441040253577362 5.60832891002421 -26.5749737740454 2.03260700072225 54.539312060436 8.88256392097104 -1.65816841364929 5.0915422967642 32.5583038558791 2.55057431664429 34.2164722695284 -3.05893529604196 81.1142858344814 88.0888836695909 -1420.94670409065 1579.7952733126
0.006949999935925 0.0572499968335032 0.00564999974519014 16 -0.220190253257752 0.171128358330267 0.336302367963265 0.436884361533146 19.2389821161694 -26.7439613479779 1.88278278102588 49.0052582244908 4.46171616341882 -2.58102319362534 -21.1861662469403 36.413143116794 2.57911059958856 38.9941663104193 23.0689490279662 75.7492195724686 88.2647476705032 -1368.56547766664 1591.43244737236
0.00974999997764826 0.0572499968335032 0.00564999974519014 16 -0.149627802371979 0.285493211836147 0.241281374418565 0.402630792275626 23.8033958785558 -22.1455157819798 0.609992701517785 34.0488762905361 -2.23118516904006 -2.30626461789466 -32.6129304411767 32.6436097686747 1.95352929844033 34.9498743865694 33.2229231426945 56.1943920725159 74.0477281365337 -322.971259925687 838.240540800969
0.0125500000193715 0.0572499968335032 0.00564999974519014 16 -0.0855084550380707 0.356249515249316 0.147756995631692 0.395041191214884 23.1531725614199 -14.3337157739949 -0.898401727373791 16.1876887650866 -8.47877038137978 -1.0328317172239 -32.6016838645667 24.2793098247399 1.25611666435428 25.3121415419638 31.7032821371929 30.5214045390816 50.767693888428 3.88865164988661 49.9390893257625
0.0153500000610948 0.0572499968335032 0.00564999974519014 16 -0.014440412123998 0.374737149932577 0.0481835834779001 0.378098022685485 21.9331666071998 -5.47966539440672 -1.91748572228408 -1.09688815906211 -11.862547176816 0.524734347197561 -25.1433195739575 14.4526520174664 1.65015675476245 13.9279176702688 23.2258338516734 4.38277723534461 27.4341937193347 154.120416847382 -305.371462239477
0.018150000102818 0.0572499968335032 0.00564999974519014 16 0.0448871429761251 0.351782649393523 -0.00178221574454558 0.354639343998725 18.6538918209466 2.50010363107009 -2.31778551696774 -14.3500213379862 -11.9765206757971 1.72655812512613 -13.3103790790389 4.62457673146065 3.55889111122299 2.89801860633452 10.9925935620711 -16.8501249690563 20.3263950698682 124.872206578784 -202.603348195526
0.0209500001445413 0.0572499968335032 0.00564999974519014 16 0.0976524031162262 0.297326928744248 -0.0324511386257109 0.31463053060529 15.098063277896 8.70301228293593 -2.21593807741666 -24.8039829116658 -9.8988270746594 2.3336481281463 -4.34621422118685 -4.71858788882655 5.78996237223031 -7.05223601697285 2.13027614377019 -33.5069951946017 34.3073000432688 29.5690366965746 97.9002145857964
0.0237500001862645 0.0572499968335032 0.00564999974519014 16 0.136216858625412 0.21582331285812 -0.0304187486336256 0.257021468393722 10.0874697262071 13.0517753113684 -1.86554107784774 -31.6935803372198 -6.72125028903083 2.45782125452835 0.342941201814385 -12.9316588826574 6.82216807015483 -15.3894801371857 -2.20848227966212 -44.7453556485882 47.3694030465981 -376.091659668433 401.245472280151
0.0265500002279878 0.0572499968335032 0.00564999974519014 16 0.159798636833827 0.122540968332129 -0.0357159054710307 0.204517772228579 6.87007934616317 16.2139521240055 -1.40343301922645 -33.149762002384 -3.01867657634218 2.3651749721522 -2.17359208724017 -19.0808632956533 5.65796887158541 -21.4460382678055 0.77015906801372 -49.3637141263895 53.8265917063874 -572.194208821411 580.620312820916
0.029350000269711 0.0572499968335032 0.00564999974519014 16 0.179785101811091 0.0323240758276855 -0.0505192225284797 0.189524986627675 3.82121622426722 18.5986034698164 -0.904535785852969 -27.9081083499098 0.763569954854866 2.24333061230268 -4.08366890199005 -22.799427477089 2.82939262779928 -25.0427580893917 3.17913311613708 -46.5067118197262 52.9161682699813 -572.930433827017 582.394595850648
0.0321500003114343 0.0572499968335032 0.00564999974519014 16 0.185314327875773 -0.0320409919546607 -0.0682512022626664 0.200065618964848 1.56973971760139 20.1867571610861 -0.560071781092082 -16.6376270759829 3.7896285304925 2.173429929198 -3.97929809873786 -24.4201207736967 -0.161699649646443 -26.5935507028947 3.41922631764578 -36.824384237069 45.5515457700176 -359.45773785244 391.78858876133
0.0349500003531575 0.0572499968335032 0.00564999974519014 16 0.191758112112681 -0.0600381821750974 -0.0812860143997629 0.216756021870001 1.76743123234542 20.8849351993272 -0.358886739420061 -10.0183709070968 5.19309801371894 2.13313567474241 -3.56020135636954 -24.8986185563925 -1.83017714026501 -27.0317542311349 3.20131461694948 -30.9033061064239 41.1822592920363 -193.155831657328 257.506891747303
-0.0350500006899238 0.05444999679178 0.00564999974519014 16 0.0895812571048737 0.373656557377738 -0.224617719192368 0.445081053597043 -1.02645406773484 31.3821564487657 -4.16013090807099 -7.66145942939881 -1.02149386303789 -1.46087398612538 1.71778198522664 -49.4745835959484 4.51335746662463 -48.013709609823 -5.87791289329763 -39.0436158781645 62.1632537060221 -125.444695672965 167.108579665897
-0.0322500006482005 0.05444999679178 0.00564999974519014 16 0.0873112241427103 0.351589482950718 -0.221092689056726 0.424405927782807 -2.62601796822909 32.4049238845209 -3.08990323125751 -13.7670516980968 -2.40597645301366 -1.31806995735793 3.76916721557524 -46.9231462952451 3.83376481202861 -45.6050763378871 -6.85907044683276 -46.1719755826176 65.2588780502773 -383.293080405682 382.945289163437
-0.0294500006064773 0.05444999679178 0.00564999974519014 16 0.0769543186823527 0.294633212590318 -0.207322373751861 0.368392811796408 -3.51697978836918 34.119599874404 -1.14885219213089 -22.6423078384528 -4.38323653372241 -1.1061549215981 7.38065658592452 -41.8949321571717 2.01809720509235 -40.7887772355736 -8.52950877805541 -56.7619077128568 70.4158436402706 -698.09557236351 734.155831601026
-0.026650000564754 0.05444999679178 0.00564999974519014 16 0.0706469408671062 0.222830174318127 -0.186216723636414 0.298866098784067 -2.4492305530675 35.6354347545399 0.686575497603087 -28.934299021587 -5.04557674257138 -0.909948307085969 9.12773812358097 -36.4352624088991 -0.664159091373759 -35.5253141018131 -8.44116262597789 -64.569733776127 74.1791863559489 -948.062048365198 1009.00076337996
-0.0238500005230308 0.05444999679178 0.00564999974519014 16 0.0658715673287709 0.131204107726614 -0.164122204059192 0.220203721884832 -0.0805788971894253 36.3908832348467 1.53936634118593 -32.3097684047599 -3.20620945898887 -0.834167312652417 7.89312931329797 -32.6002657092227 -3.14134100270102 -31.7660983965703 -6.35376297211204 -68.7006516396067 75.9554793741239 -1115.66552754244 1147.01979158545
-0.0210500004813075 0.05444999679178 0.00564999974519014 16 0.071307459672292 0.0405041830996439 -0.148393514219982 0.169546388094943 3.33119670198423 36.2630803647557 1.42449060372348 -33.1259672938721 0.211566876410085 -1.02701055777237 3.638365904369 -30.4148831221 -4.50048991253282 -29.3878725643277 -2.21387530064552 -69.3890476586277 75.3882499642702 -1162.19730756091 1149.59098914835
-0.0182500004395843 0.05444999679178 0.00564999974519014 16 0.0852235615253449 -0.0570482780827054 -0.147673204308376 0.179791370043084 4.0953000899809 35.0073153701895 0.911192671078286 -31.5478842087858 3.08092021197377 -1.4760165840368 -1.29395878460228 -28.5261502706071 -4.86602297030466 -27.0501336865703 2.20515145568057 -66.5551995789754 71.8760531498569 -1052.81138830925 1041.17834663429
-0.015450000397861 0.05444999679178 0.00564999974519014 16 0.0942450273036957 -0.139672385906645 -0.157994320143577 0.230982046388805 1.97734467931854 31.9065001133629 0.52109024642275 -28.2402270550774 3.77251274889029 -1.7943528784182 -5.14176078828978 -26.1146459621046 -5.08607122856243 -24.3202930836864 5.66285103471253 -60.1467271684403 65.1242913711354 -838.998779465461 835.082612557193
-0.0126500003561378 0.05444999679178 0.00564999974519014 16 0.0956673860549926 -0.218504006908897 -0.177674418611205 0.297429737616581 -3.82806959342191 26.2472163699982 0.344783399615651 -24.9651200162026 2.50681628898911 -1.48755809934527 -4.64035670524482 -23.4357182582033 -5.48206096017859 -21.948160158858 4.98514010486047 -51.2123363862008 55.9399388125993 -614.540866470164 619.649756166105
-0.0098500003144145 0.05444999679178 0.00564999974519014 16 0.0699031066894531 -0.281740574164627 -0.182318220754775 0.342788752841509 -11.547710261055 17.5735841591832 0.0727768089598798 -19.1633799279036 0.897086625122565 -0.403991942985359 5.30597540760878 -19.8662076565569 -5.4494817770543 -19.4622157135716 -5.2331985986489 -36.7369640870868 41.9018942100521 -256.602408332394 376.038413140201
-0.00705000027269125 0.05444999679178 0.00564999974519014 16 0.0250470368067424 -0.326725318014166 -0.139454173550863 0.35612393068286 -19.9968749072336 5.68685762033764 -0.227276312259833 -8.53060741176467 0.610484853664377 0.961995198346818 24.5683391479971 -12.5196954824913 -4.40199054991596 -13.4816906808381 -24.795615460257 -14.2174650321023 31.6024499304371 14.5424238993497 139.270954785838
-0.004250000230968 0.05444999679178 0.00564999974519014 16 -0.0507996861139934 -0.330021594378244 -0.0271741332988798 0.335012379451541 -24.0612690314272 -9.06043366169945 -0.146816686446372 8.28744467008422 2.58850743562108 1.66176872120629 40.4895952155398 1.73284263496677 -2.67474759065736 0.0710739137604752 -40.6364119019862 17.3478783317837 44.1845211175076 -30.1397036740577 73.3042507186565
-0.00145000018924474 0.05444999679178 0.00564999974519014 16 -0.119357503255208 -0.281508411301572 0.10885622652946 0.324565674819573 -19.4822282598651 -24.6891918978475 0.684747453332164 28.8467774213324 6.29359955603372 0.989587004787854 40.5339239138841 21.9293262124655 -1.13806994293451 20.9397392076776 -39.849176460552 53.53596931918 69.9466193151173 -320.574974750674 555.14338476209
0.0013499998524785 0.05444999679178 0.00564999974519014 16 -0.166488672892253 -0.170583939237695 0.215046097374094 0.321032992888739 -5.75575696981788 -37.5410506377413 1.87223336220009 46.6449940227265 9.7452588322245 -0.966811372916538 20.838729632252 42.0408604683028 -0.0703762227668682 43.0076718412193 -18.9664962700519 84.1860446604678 96.4192819592543 -1677.3976345955 1696.36059227085
0.00414999989420176 0.05444999679178 0.00564999974519014 16 -0.153238695859909 -0.0218548500848313 0.227902197002647 0.275497992333355 8.42286933612236 -44.1245808712905 2.34185459061823 56.8455361341354 10.1359589941794 -3.14994651152452 -2.65170769797312 54.7668276252203 0.835995993861134 57.9167741367448 4.99356228859135 100.970117005426 116.508595901016 -2637.91634524386 2787.89691213248
0.006949999935925 0.05444999679178 0.00564999974519014 16 -0.116519560019175 0.149609161734115 0.191889526258844 0.269780094576472 15.4974328498665 -43.0285844571531 1.48787005760466 55.2894849327824 5.96635596974061 -4.24236188092852 -19.0305809738481 56.4996530859506 1.45345593915714 60.7420149668791 20.5184510314528 98.3180693899355 117.375644763004 -2673.51620706634 2770.69515050618
0.00974999997764826 0.05444999679178 0.00564999974519014 16 -0.0630763943990071 0.293374543500443 0.109724629786409 0.31951016992615 15.2506922893123 -35.3327771676048 -0.274783705834508 41.7659856925708 -1.34207880812687 -3.67832254783552 -23.4203338135576 48.9210045333586 1.38262857389211 52.5993270811941 23.1455501077231 77.0987628601756 96.1593725736246 -1606.61541894381 1647.98278907318
0.0125500000193715 0.05444999679178 0.00564999974519014 16 -0.0286412274837493 0.39093124939284 0.0524791711089589 0.395476453235722 11.6766032220291 -23.1153042469554 -1.95020180660043 21.7567147913281 -8.3806290240633 -1.84844945340458 -20.4119078370051 35.9029318221128 0.794731657938003 37.7513812755173 18.4617060304047 44.8720190382835 61.4776339031898 -436.896222415213 434.232632151963
0.0153500000610948 0.05444999679178 0.00564999974519014 16 0.00555362661679593 0.42189541947407 -0.010417514553022 0.422060555313172 10.3794803863226 -8.93909906627563 -2.82339659702825 0.65557920768807 -12.3183456216187 0.275117290954553 -12.3048385016745 20.7013325295417 0.839328737089927 20.4262152385872 9.48144190464625 9.59467827396371 24.4782732386323 167.648104868063 -164.061818274836
0.018150000102818 0.05444999679178 0.00564999974519014 16 0.0356767352422078 0.398215729930283 -0.0190915897135468 0.400266268625325 8.79904695698666 4.48966299308463 -2.87669200953236 -15.5680773291013 -12.7387834982727 1.93558764210848 -0.67818784225643 5.05873550648198 2.34496426301545 3.1231478643735 -2.19850416727593 -20.0577403221859 20.4181394840106 58.4486349043923 -63.1748383910776
0.0209500001445413 0.05444999679178 0.00564999974519014 16 0.0620808680852254 0.335300154454696 -0.0159228963971448 0.341370424010681 8.00180820621338 15.2378542768613 -2.38881596308015 -27.5376296920329 -10.8647743279283 2.85292779188695 7.17905999708539 -9.7555653282855 4.5300705669478 -12.6084931201725 -9.56787596016554 -42.7754839688942 45.6098714964608 -361.134312254462 364.688486010925
0.0237500001862645 0.05444999679178 0.00564999974519014 16 0.0862962452570597 0.241897768515046 0.0192670630421101 0.257551532855648 5.41515296741264 22.6576630789058 -1.70547728147179 -35.2519476283113 -7.75033704209823 3.08409883435237 9.45826161546385 -22.1830889663764 5.92298338762747 -25.2671878007287 -11.1637388969356 -57.9096107072172 64.1606020683853 -829.293488592408 827.471924255057