TITLE="DynamicStudio Exported Data"
VARIABLES= "X (m)[m]" "Y (m)[m]" "Z (m)[m]" "Status[-]" "U[m/s]" "V[m/s]" "W[m/s]" "Length[m/s]" "dU/dX[1/s]" "dU/dY[1/s]" "dU/dZ[1/s]" "dV/dX[1/s]" "dV/dY[1/s]" "dV/dZ[1/s]" "dW/dX[1/s]" "dW/dY[1/s]" "dW/dZ[1/s]" "Vorticity X[1/s]" "Vorticity Y[1/s]" "Vorticity Z[1/s]" "Vorticity Magnitude[1/s]" "Lambda-2[1/s²]" "Q-Criterion[1/s²]"
ZONE T="DynamicStudio Data" I=26 J=26 F=POINT
-0.0350500006899238 0.0600499968752265 0.00564999974519014 16 -0.437776099244753 -0.223715941131037 0.636657530583907 0.804381468356461 -2.24819227304816 -30.3261119196942 6.6686826991356 15.5351183013876 6.97910286738612 -2.78804615255377 19.7538289076156 43.6282872985236 10.7621270940868 46.4163334510774 -13.08514620848 45.8612302210818 66.5503531149908 -563.087464643526 496.24969370859
-0.0322500006482005 0.0600499968752265 0.00564999974519014 16 -0.444060176412264 -0.182351360206182 0.688457868775974 0.839294761048758 -1.62271987298384 -30.3337617795555 6.39054798829069 28.2182307300522 4.63886598116921 -2.61748760941583 18.8806986106216 42.0788049241928 9.19811768991946 44.6962925336086 -12.4901506223309 58.5519925096077 74.7134409304215 -941.223100068332 865.663115647735
-0.0294500006064773 0.0600499968752265 0.00564999974519014 16 -0.44800133784612 -0.0724861584411701 0.733569069656854 0.862602470338854 12.6882725450977 -29.3505951941752 5.45956664048663 46.457148822344 -0.437897673509082 -2.26249035953704 -8.66190181353072 38.8275273430314 5.89381075472826 41.0900177025685 14.1214684540173 75.8077440165192 87.3763095980215 -1538.18624583609 1565.32733158204
-0.026650000564754 0.0600499968752265 0.00564999974519014 16 -0.371709202925364 0.0669239520626919 0.62485950473696 0.730134198321937 34.2530511143167 -25.9289308475306 3.7880070889175 50.4560108022804 -6.7220405386423 -1.97638201777783 -59.3869058392926 34.1365330722058 1.65698574944705 36.1129150899836 63.1749129282101 76.3849416498111 105.498206480624 -256.117439171574 1416.06335938503
-0.0238500005230308 0.0600499968752265 0.00564999974519014 16 -0.250884415308634 0.198513976389465 0.383183086527667 0.499179393071851 47.8839713626697 -19.9250836563299 1.84560100798741 37.9277393589492 -11.7057410429573 -1.69719756888416 -91.5804929591182 27.6576679816084 -2.30557991968408 29.3548655504926 93.4260939671057 57.852823015279 113.741339434153 13.0928736358668 327.745786364632
-0.0210500004813075 0.0600499968752265 0.00564999974519014 16 -0.0936174325148265 0.273293005869612 0.0909928282427912 0.302874537588649 45.419923323774 -12.3481591949543 0.420792347261398 14.3273570246163 -13.6068650419316 -1.25023842307394 -81.672707355724 18.8425777748475 -5.01720374411192 20.0928161979215 82.0934997029854 26.6755162195706 88.6264470788946 103.156307680249 -542.793911662594
-0.0182500004395843 0.0600499968752265 0.00564999974519014 16 0.0166375641028087 0.279405213053105 -0.0966258950255967 0.296109177855101 31.2103680912496 -4.89329531119987 -0.277042479398292 -6.56985193567761 -12.4562781593229 -0.718392153085311 -45.1253166586266 9.07634962470622 -5.48022108877794 9.79474177779153 44.8482741792283 -1.67655662447775 45.9359935721862 172.283427691175 -529.671062479063
-0.015450000397861 0.0600499968752265 0.00564999974519014 16 0.0933886249860127 0.242137185556736 -0.178282377676417 0.314859425928576 19.2436123148913 1.25977762886313 -0.636856402167732 -20.08349941884 -9.59625918265486 -0.260208283686899 -13.3672929319587 0.631936464797617 -3.38175067212958 0.892144748484515 12.7304365297909 -21.3432770477032 24.8675574117423 58.3567994820237 -200.339502026763
-0.0126500003561378 0.0600499968752265 0.00564999974519014 16 0.1338707447052 0.17356962888504 -0.179201604275731 0.283127192855457 12.6885171922009 5.80312677896282 -0.982793453213724 -24.4693986354767 -6.47363803430051 -0.0566645925878333 -2.22391704090091 -5.34309655516021 0.00886530764733126 -5.28643196257238 1.24112358768719 -30.2725254144395 30.7556912720671 -7.4063664198791 57.4248363103259
-0.0098500003144145 0.0600499968752265 0.00564999974519014 16 0.170585520267487 0.110634451480582 -0.192725881017201 0.280147580380761 10.4508278171847 8.73893795019267 -1.14475231508429 -25.1873189147496 -3.92891869370857 -0.0822354388828348 -7.93228441765734 -9.16587979373792 2.41120082137459 -9.08364435485509 6.78753210257305 -33.9262568649423 35.7711348949819 -109.169115608545 184.941335888895
-0.00705000027269125 0.0600499968752265 0.00564999974519014 16 0.196582215627034 0.0361304711663009 -0.226785810499957 0.302294198243458 4.60702401062738 10.1543167186819 -1.03042438746523 -24.94914119502 -2.35698230394795 -0.197358441912032 -12.0397846094338 -11.3109666806288 2.78779662597504 -11.1136082387168 11.0093602219685 -35.1034579137019 38.4313811627917 -245.153132146625 234.117063722623
-0.004250000230968 0.0600499968752265 0.00564999974519014 16 0.197916932106018 -0.0274740031693849 -0.26348487866732 0.330681439078068 -5.05967800451024 10.3919862034077 -0.979950595531937 -26.6980720400506 -1.49895077528707 -0.197871588516404 -3.8798844857504 -12.1862228290234 2.16814664914747 -11.988351240507 2.89993389021847 -37.0900582434583 39.0871155566196 -237.085091263671 264.596733171835
-0.00145000018924474 0.0600499968752265 0.00564999974519014 16 0.16776414791743 -0.111838371073051 -0.250708430587547 0.321725578309225 -15.622621604952 10.1297513861092 -1.35800993736901 -29.6954597080862 -0.735058720190201 -0.0720874018604959 15.4276080873293 -12.5399114506345 1.92814897967707 -12.467824048774 -16.7856180246983 -39.8252110941954 44.9805629986941 -121.579270925204 300.797999209673
0.0013499998524785 0.0600499968752265 0.00564999974519014 16 0.108582122325897 -0.191883568616856 -0.177061830987223 0.282772476005858 -22.5843472480426 9.60414966537331 -2.26151560212045 -31.654998258304 0.429728948892264 -0.0845663361997327 31.3622536411164 -12.7192196121544 2.34401389184426 -12.6346532759547 -33.6237692432369 -41.2591479236773 54.703835413195 18.7829682011591 312.234068188973
0.00414999989420176 0.0600499968752265 0.00564999974519014 16 0.0380831122398377 -0.286588212622834 -0.0742793073020099 0.298497139928491 -25.69742095874 8.26128736127438 -3.28844650700637 -28.8929443463843 1.96879884399472 -0.451046837701447 37.113386034081 -11.8283443024893 2.69242722494837 -11.3772974647879 -40.4018325410874 -37.1542317076587 56.0552219161313 11.2520790018784 240.922522463395
0.006949999935925 0.0600499968752265 0.00564999974519014 16 -0.0405313686529796 -0.351818175592149 0.034409790886566 0.355812948374183 -29.670472734211 5.54561169152848 -4.01543831707641 -18.8242900061459 3.12576871683497 -1.11058816516921 36.041208530836 -8.50757192306593 2.71922292835543 -7.39698375789672 -40.0566468479124 -24.3699016976744 47.4672775095356 -1.26112349638385 74.7410405024234
0.00974999997764826 0.0600499968752265 0.00564999974519014 16 -0.135375754038493 -0.392157255268345 0.136436314243668 0.436725057084534 -35.8790671004549 1.34646847966468 -4.31294356742656 -0.701293370630343 3.22843156552602 -1.87241639209606 36.1554458491815 -2.63484201590497 2.40889811321613 -0.762425623808908 -40.4683894166081 -2.04776185029503 40.5273384692555 13.1401392267616 -42.5380214640778
0.0125500000193715 0.0600499968752265 0.00564999974519014 16 -0.250829919576645 -0.358253789709565 0.248991646975434 0.503247718981051 -39.5813041199399 -3.78963409464816 -4.13571288411816 22.5447420073318 2.17322821154049 -2.66038334229686 35.8878366580442 4.29508891078834 1.37511172430587 6.95547225308521 -40.0235495421624 26.33437610198 48.4124206882686 -8.59019140421198 107.825203879397
0.0153500000610948 0.0600499968752265 0.00564999974519014 16 -0.366078576644262 -0.270481186761366 0.3472235993098 0.572483907710407 -33.3022814977948 -8.773037004163 -3.55054305099204 44.589686853497 0.488334194621916 -3.5319765706793 26.7354947782618 9.95066462316201 -0.42730822812413 13.4826411938413 -30.2860378292539 53.36272385766 62.8220184208192 -47.185799700531 519.017039146836
0.018150000102818 0.0600499968752265 0.00564999974519014 16 -0.444429040153821 -0.113662872696295 0.402642915989854 0.610375079896316 -15.1397505953346 -12.1781941994726 -2.64928141829874 58.6173083398036 -1.23473145160547 -4.31409725029365 8.96177933398046 12.4294843552103 -2.31002629617275 16.743581605504 -11.6110607522792 70.7955025392762 73.6693113620723 -495.088196777658 847.736254500444
0.0209500001445413 0.0600499968752265 0.00564999974519014 16 -0.452816795905431 0.0536050956824329 0.394622097401104 0.603028321635418 10.9720321422441 -12.4850616068218 -1.57913266441998 57.9209699424537 -3.02862850274372 -4.64627416791517 -12.5997623971492 10.9644189278049 -2.9252278017043 15.6106930957201 11.0206297327292 70.4060315492756 72.9531171174492 -558.384173155475 697.727403678154
0.0237500001862645 0.0600499968752265 0.00564999974519014 16 -0.378074811299642 0.207188633358261 0.326076705843831 0.540549452710932 34.9602276916633 -9.51073981013169 -0.689060360805672 43.0510476815439 -5.05516741127317 -4.32474748905984 -29.0651992010529 6.80773948204934 -2.04188458704815 11.1324869711092 28.3761388402472 52.5617874916756 60.7608346384657 7.66158015622473 181.068905256677
0.0265500002279878 0.0600499968752265 0.00564999974519014 16 -0.247717006802559 0.292106479408831 0.225168688044081 0.444286899252423 49.0511033687438 -4.54339472873015 -0.197806833173129 19.8140981835636 -6.97322891949623 -3.45209232209207 -38.9793391525186 2.40246519500617 -1.02658539123488 5.85455751709823 38.7815323193455 24.3574929122937 46.1689349425552 35.853053571843 -294.634682489359
0.029350000269711 0.0600499968752265 0.00564999974519014 16 -0.0926373859246572 0.316976899054134 0.101771132910702 0.345562444861788 46.9367338574245 0.438680564213136 -0.112978083482432 0.859613612266155 -8.02972318231758 -2.4422752397937 -39.135748134501 -0.0738066988007308 -1.15703664908506 2.36846854099297 39.0227700510185 0.420933048053019 39.0968465520595 65.1264531667093 -426.884651092008
0.0321500003114343 0.0600499968752265 0.00564999974519014 16 0.0230807574590046 0.297942040049626 0.00242536339714813 0.298844546514442 29.8123454815391 3.9168308777562 -0.28145620327815 -6.10463578369462 -8.0029509962416 -1.65728709739757 -26.6661296575164 -0.478819381292827 -2.29535775942427 1.17846771610475 26.3846734542382 -10.0214666614508 28.2483552351505 49.2096045382079 -273.035165689052
0.0349500003531575 0.0600499968752265 0.00564999974519014 16 0.0786297682921091 0.284787406013347 -0.0496695894716928 0.299589010485646 19.364086703348 5.41227297312054 -0.383691302642167 -5.06330844654531 -7.65934466285652 -1.27832757035114 -18.5230989895895 -0.280412426628776 -3.10172222441695 0.997915143722369 18.1394076869473 -10.4755814196659 20.9707356081613 42.0535571174907 -164.682676116944
-0.0350500006899238 0.0572499968335032 0.00564999974519014 16 -0.352112143039703 -0.246162344268038 0.51251657138307 0.66876909090792 -2.56265497362631 -52.0714968843818 6.98284748293118 17.7307070443505 4.24988952309885 -2.89165990138074 21.437235698324 72.657701890147 10.2217403487523 75.5493617915277 -14.4543882153928 69.8022039287323 103.870029744372 -1024.40388825445 990.028345311374
-0.0322500006482005 0.0572499968335032 0.00564999974519014 16 -0.358488691250483 -0.198014085224374 0.569513490949757 0.701476539932384 -2.09454159191295 -51.4923043119729 6.79032791576435 31.7190113017322 0.797324999170212 -2.71256062055538 20.9104495809293 70.5833094477134 8.39537379933325 73.2958700682688 -14.1201216651649 83.2113156137051 111.784549250186 -1699.59356136744 1670.19703001167
-0.0294500006064773 0.0572499968335032 0.00564999974519014 16 -0.361998544136683 -0.0729003207519418 0.621928708598328 0.723292970587713 10.1234018388073 -48.7833340818801 5.97454308543504 51.5915024553396 -6.14555465394598 -2.38739701656562 -4.49828270713339 65.4736985647288 4.74151207258468 67.8610955812944 10.4728257925684 100.37483653722 121.613799313436 -2652.11040844306 2656.63948769183
-0.026650000564754 0.0572499968335032 0.00564999974519014 16 -0.297379463513692 0.0862360657743921 0.52814255419032 0.612213820414577 28.7814955772307 -41.8874626207185 4.3376694540956 55.1258810810999 -13.8550642773833 -2.15149497139618 -53.0362986939722 56.523137069953 0.274200757880223 58.6746320413491 57.3739681480678 97.0133437018184 127.067200812996 -2118.41655612257 2266.06982874853
-0.0238500005230308 0.0572499968335032 0.00564999974519014 16 -0.192150781949361 0.233644153480612 0.300595913325184 0.42646150654804 40.2952389020295 -30.8284570200593 2.3468522360042 40.3195735686402 -19.2555352644555 -1.9439882325414 -82.8815297807255 43.6331884431056 -3.66418823505486 45.577176675647 85.2283820167297 71.1480305886995 120.0133258916 -11.2806986487275 669.323520993417
-0.0210500004813075 0.0572499968335032 0.00564999974519014 16 -0.0594975618521372 0.312927104975533 0.0373475949481751 0.320715100584819 37.3649984706974 -17.7104411934676 0.798280587321331 14.0779041545168 -20.764208604389 -1.55535521968633 -71.6185258169187 27.8184071281612 -5.99478059707721 29.3737623478475 72.4168064042401 31.7883453479844 84.3653404202207 223.953653862272 -525.607638496732
-0.0182500004395843 0.0572499968335032 0.00564999974519014 16 0.030287413597107 0.315324108171432 -0.122281807285423 0.339557743262469 24.4905169715241 -5.42061984858364 -0.0307237015272716 -8.83379742693661 -18.6343392039 -1.00813304327214 -36.2139695146267 12.1082878287364 -5.86750070126221 13.1164208720086 36.1832458130994 -3.41317757835297 38.6382913085479 386.422204901889 -527.516247488207
-0.015450000397861 0.0572499968335032 0.00564999974519014 16 0.0885813335577648 0.268059083331997 -0.176998939017455 0.333213068808784 14.1475227282884 4.34429654439037 -0.441134714467301 -23.0435532172541 -14.3636795731163 -0.465850721369421 -6.70307781677054 -0.652470043815451 -3.33874328675749 -0.186619322446029 6.26194310230324 -27.3878497616445 28.0952144101874 105.127544151252 -105.641676355103
-0.0126500003561378 0.0572499968335032 0.00564999974519014 16 0.117327009439468 0.191530288762297 -0.163406429729269 0.277760940260225 9.23356573929042 11.3808878672038 -0.740205725002637 -27.1396089469213 -9.77428917937573 -0.121110375025706 2.07801163366777 -9.62693616025299 0.103174343210398 -9.50582578522729 -2.8182173586704 -38.5204968141251 39.7760197574722 -220.092893252893 218.937749965428
-0.0098500003144145 0.0572499968335032 0.00564999974519014 16 0.145266874631246 0.120320530137978 -0.165793323299537 0.251131282178304 8.48684784328384 15.8212155702718 -0.829028591932573 -27.0606418375923 -6.07899572528579 -0.0135042473763035 -4.96718320919281 -15.6197049637603 2.37341689508223 -15.606200716384 4.13815461726024 -42.8818574078641 45.8206451196925 -389.692093546069 377.926703858143
-0.00705000027269125 0.0572499968335032 0.00564999974519014 16 0.167751798629761 0.0426333647884894 -0.194274655208768 0.260193988003554 4.12425456543099 17.7961720665393 -0.641241340789013 -25.8602402318652 -3.81855256218474 -0.0202726083947281 -10.5405859251819 -19.3689758941797 2.63434637621988 -19.348703285785 9.89934458439292 -43.6564122984045 48.7673218129741 -440.722635052514 438.118207860167
-0.004250000230968 0.0572499968335032 0.00564999974519014 16 0.169008707205454 -0.0232692411992078 -0.229551581651904 0.286005820458494 -4.52422776746693 17.6642681131172 -0.517550103104869 -27.2526751504705 -2.6388609244732 0.0133905043137108 -3.60803440874659 -20.8482726059705 1.90183125471964 -20.8616631102842 3.09048430564173 -44.9169432635877 49.621486002686 -461.086837666128 478.126212875932
-0.00145000018924474 0.0572499968335032 0.00564999974519014 16 0.139943997065226 -0.109301212616265 -0.215543686009284 0.279267180263716 -14.5750326017002 16.1686404785882 -0.872790427911431 -30.3412676051759 -1.69308060199587 0.0839798355632302 14.7177015389245 -20.2923199273658 1.47255256329757 -20.376299762929 -15.5904919668359 -46.509908083764 53.1171213617314 -397.254215650627 505.847715460729
0.0013499998524785 0.0572499968335032 0.00564999974519014 16 0.0814253604412079 -0.192580412995497 -0.141969620577147 0.252730445256039 -21.1805568246673 13.8924616255398 -1.86741346637714 -32.720493795903 -0.37003972366801 -0.00498709510481825 30.2985689136221 -18.4589592642934 1.72282410487672 -18.4539721691885 -32.1659823799992 -46.6129554214428 59.5648144831579 -83.5727921414538 481.765863630752
0.00414999989420176 0.0572499968335032 0.00564999974519014 16 0.0135626848538717 -0.29249870008595 -0.0381026131783923 0.295281636922173 -23.5179788047755 10.756849816233 -3.07944648346136 -29.9317194803795 1.22120764955864 -0.40454251381741 34.8566598027473 -15.4355067420203 2.05535437575448 -15.0309642282029 -37.9361062862086 -40.6885692966125 57.6249747695673 26.4797389109831 348.517809169753
0.006949999935925 0.0572499968335032 0.00564999974519014 16 -0.0572396183013917 -0.361324061069948 0.0590808093477002 0.37056982209099 -26.5928912138295 6.40505136513563 -3.99294455927623 -19.1144983668497 2.16453451997755 -0.982435521238465 31.9137956615678 -10.1582917678928 2.09660809693858 -9.17585624665434 -35.906740220844 -25.5195497319853 44.9970860130933 1.99344603021032 131.101572485726
0.00974999997764826 0.0572499968335032 0.00564999974519014 16 -0.140950558185577 -0.401784164815617 0.14576978894455 0.45005155962217 -31.3585537883523 0.206670936606176 -4.40162961863747 -0.197343275168638 1.91657183565599 -1.57543119095897 29.730679421387 -1.56368910655049 1.75102008858487 0.0117420844084786 -34.1323090400245 -0.404014211774814 34.1347020752137 6.03665685160664 16.7863168068981
0.0125500000193715 0.0572499968335032 0.00564999974519014 16 -0.239775885343552 -0.364591564701016 0.234041625632284 0.495171653845433 -34.1628534566174 -8.0202588473813 -4.33219066973526 23.460521905402 0.848576293452572 -2.18353994652097 28.9681463358259 9.47079066789785 0.850111811901643 11.6543306144188 -33.3003370055611 31.4807807527833 47.2839869676716 -13.5012621848798 277.024193318716
0.0153500000610948 0.0572499968335032 0.00564999974519014 16 -0.342160815795263 -0.270852857372568 0.318819446778313 0.540445310699051 -28.1821323675829 -16.8977243377442 -3.96079677685617 45.4261953686542 -0.342080780801927 -2.94907286036841 21.8798821731837 19.3609016910698 -0.417267903983128 22.3099745514382 -25.8406789500398 62.3239197063983 71.0615692245425 -308.473346992482 932.900608049123
0.018150000102818 0.0572499968335032 0.00564999974519014 16 -0.407852095762889 -0.109960265819585 0.363999739676425 0.55761133647174 -12.5073042445807 -23.5152674202735 -3.32370967574212 59.5256831618518 -1.51260890259808 -3.77352716206783 8.22455036164004 24.1274700244722 -1.40236118952291 27.90099718654 -11.5482600373822 83.0409505821252 88.3607799166422 -1408.00736284738 1556.72368085629
0.0209500001445413 0.0572499968335032 0.00564999974519014 16 -0.417141946554184 0.0622792381738933 0.365389569868476 0.558028354881008 9.6502928458347 -24.7236853388348 -2.45172234057942 59.2272481806013 -3.12929627908106 -4.28222137439366 -9.24015417908035 21.9934459212123 -1.18150229899031 26.2756672956059 6.78843183850093 83.9509335194362 88.2284123026145 -1484.38572181921 1497.93916136156
0.0237500001862645 0.0572499968335032 0.00564999974519014 16 -0.350134989023209 0.221154784420505 0.307756667359111 0.515963288921168 30.4644933663987 -19.8976523160574 -1.56470526427825 44.5846887927407 -5.29370265891556 -4.18234138123946 -24.2870499549142 15.2412482722567 -0.0126938666239935 19.4235896534962 22.722344690636 64.4823411087981 71.0742787380841 -5.51194068210957 751.283180453856
0.0265500002279878 0.0572499968335032 0.00564999974519014 16 -0.236136302550634 0.312389428589183 0.223593960063275 0.450934327206676 43.1513710879294 -11.157967403779 -0.913945846832328 21.0980305704519 -7.47192232092628 -3.46910822315878 -35.2320367995894 8.18422143553658 0.737651461170582 11.6533296586954 34.3180909527571 32.2559979742309 48.5178406783476 7.89788103836136 -64.5017817309535
0.029350000269711 0.0572499968335032 0.00564999974519014 16 -0.0953226395448048 0.34037349944779 0.105293331532933 0.368818668726825 41.9087131663804 -1.89090619623494 -0.628236330376515 1.46253918395177 -9.00661552522646 -2.5008097150275 -37.9842656847946 4.1108605975033 0.0872151279584345 6.6116703125308 37.3560293544181 3.35344538018671 38.0845468578483 72.1564263729553 -385.403197152041
0.0321500003114343 0.0572499968335032 0.00564999974519014 16 0.0101267401377361 0.32055137572422 0.00636055096266014 0.320774362992207 26.7741878149117 5.01588872358887 -0.648406395517251 -6.04664861841572 -9.67645232421629 -1.68115237397727 -26.808337587477 3.23659030525494 -1.47848194162775 4.91774267923221 26.1599311919597 -11.0625373420046 28.8254388599802 74.2355970702377 -265.970024525346
0.0349500003531575 0.0572499968335032 0.00564999974519014 16 0.0617820779482523 0.305594910645547 -0.0473259253122766 0.315349041182508 17.6722173266586 8.11952215065795 -0.690331134178595 -5.17417826445132 -9.81201832798822 -1.26431605483587 -19.0888386860349 3.50124248247602 -2.48998768697537 4.76555853731189 18.3985075518563 -13.2937004151093 23.1934926010495 74.6963423839517 -159.71100657738
-0.0350500006899238 0.05444999679178 0.00564999974519014 16 -0.144386285543442 -0.25422330063923 0.223276466589111 0.367871263587487 -2.66425131383212 -77.9376376140201 6.94305408629813 21.6231371982847 -6.21387258762432 -2.5855612848189 23.413137834938 108.647256524909 8.15977494431625 111.232817809728 -16.4700837486398 99.5607748123047 150.187720196446 -1247.85161984699 1747.72351413474
-0.0322500006482005 0.05444999679178 0.00564999974519014 16 -0.153960033257802 -0.192607882690876 0.289017373490302 0.379911213962735 -2.67738972067938 -77.9001166109273 6.96387016259398 37.3628636684888 -9.70263714843033 -2.4820398457278 23.5468717050676 107.426592797666 6.13850883623998 109.908632643394 -16.5830015424736 115.262980279416 160.126381625862 -2488.6825892125 2963.21399985446
-0.0294500006064773 0.05444999679178 0.00564999974519014 16 -0.164241479237874 -0.0392584473847334 0.35436896258189 0.392547896230091 4.89542274167339 -74.7982596151198 6.48809126001745 59.0874082302492 -15.8995156369803 -2.34357501891205 3.85673169608499 101.544767153294 2.29850674502156 103.888342172206 2.63135956393246 133.885667845369 169.484759630017 -4193.13321635989 4529.46242100928
-0.026650000564754 0.05444999679178 0.00564999974519014 16 -0.131012142499288 0.147909132591061 0.30159750907061 0.360558387038341 16.7719863102939 -64.4566427122107 5.06997285395193 60.9228042729734 -21.4828349803261 -2.34289911868089 -37.4710081555326 86.5750237064122 -2.10313061228555 88.9179228250931 42.5409810094845 125.379446985184 159.487108542004 -3709.13929189128 3969.29068480073
-0.0238500005230308 0.05444999679178 0.00564999974519014 16 -0.0715455106894176 0.312352070535223 0.125694145685605 0.344211554610075 23.4890078375246 -46.6999079814283 3.08761027076428 42.1775222052348 -23.7372358217219 -2.39435969491603 -61.4554540814911 62.4736060955855 -5.59280724620699 64.8679657905016 64.5430643522553 88.877430186663 127.565111760082 -1723.78079069388 1752.84535452807
-0.0210500004813075 0.05444999679178 0.00564999974519014 16 0.00321320613225295 0.393535382525103 -0.0645921850840872 0.398813957086214 19.870044935125 -25.5167392079426 1.34544526661127 12.2583826506794 -22.2669896145457 -2.19514566156445 -48.6431565286565 33.8869424230332 -6.9908306407234 36.0820880845977 49.9886017952677 37.7751218586221 72.3030927514464 49.7828329030514 26.9379826547013
-0.0182500004395843 0.05444999679178 0.00564999974519014 16 0.0444392025470735 0.387030647914313 -0.162699952488765 0.422183419484754 10.2384243290527 -6.05951437478277 0.286014462506289 -13.197478109752 -18.213656828382 -1.65632437371662 -17.7040705219157 8.11179344148486 -5.78098019795898 9.76811781520148 17.990084984422 -7.13796373496923 21.6797096308996 176.648042942853 -201.845412950719
-0.015450000397861 0.05444999679178 0.00564999974519014 16 0.0648500430583954 0.32113736643844 -0.166212608565208 0.367370885419277 3.52934671717293 9.04583788583018 -0.204505821569587 -27.983540421192 -13.1806485724124 -0.954120649039867 6.06770718019764 -10.4081326756423 -2.63831738646039 -9.45401202660248 -6.27221300176723 -37.0293783070222 38.7284631394437 -153.909965662189 223.388955977234
-0.0126500003561378 0.05444999679178 0.00564999974519014 16 0.0676894426345824 0.227789168311592 -0.121865397615111 0.267059807871114 1.89863460650189 19.9623537069208 -0.398590285600367 -31.2974016326903 -8.67225907644597 -0.312941822068471 10.0367280584447 -22.16316798095 0.670017390956008 -21.8502261588815 -10.4353183440451 -51.2597553396111 56.6911877597623 -584.641107039307 600.830664238108
-0.0098500003144145 0.05444999679178 0.00564999974519014 16 0.0789897155761718 0.141827182845833 -0.102392117401275 0.191933505846964 4.11167677337319 27.232128206552 -0.305015518264166 -29.8339214658602 -5.43648021649898 0.0864893330885449 0.783508088134315 -29.8798068995467 2.45987585241622 -29.9662962326353 -1.08852360639848 -57.0660496724121 64.4647021148624 -787.088583507495 789.652539525605
-0.00705000027269125 0.05444999679178 0.00564999974519014 16 0.0950315920511882 0.056833480567196 -0.115148114667196 0.159750231025107 2.92492642897689 30.8316709166492 0.0605396119105426 -27.1229947277574 -3.66088925543999 0.302471081830264 -7.17386937109378 -35.2479438205426 2.35062121914231 -35.5504149023729 7.23440898300433 -57.9546656444066 68.3733277164363 -834.592607084465 834.905233114364
-0.004250000230968 0.05444999679178 0.00564999974519014 16 0.0985644276936848 -0.0122249766318904 -0.144990715621 0.17574613531035 -2.95921521257064 30.5978904516292 0.330919856152838 -27.9123708718146 -2.91813067591534 0.428314935424783 -3.2606790749787 -37.4827189966079 1.33419516249071 -37.9110339320327 3.59159893113153 -58.5102613234438 69.8111506624516 -862.342607403071 871.986948233793
-0.00145000018924474 0.05444999679178 0.00564999974519014 16 0.0779631964365641 -0.101214985383946 -0.13568131325068 0.186365640691378 -11.086722581996 27.0401955115577 0.0508148126892327 -31.0480735607248 -2.49740932149967 0.433716262052202 12.0306865142606 -35.6990119843166 0.535166149574881 -36.1327282463688 -11.9798717015714 -58.0882690722825 69.4502583172009 -847.757454212491 874.836201049319
0.0013499998524785 0.05444999679178 0.00564999974519014 16 0.0314396365483602 -0.188356807513337 -0.0771378196416966 0.205953831967226 -16.585287464783 21.2327949850176 -1.0330992109044 -33.718916971665 -2.11522106851659 0.238085485384946 26.000753798815 -30.5475425079181 0.480997264276888 -30.7856279933031 -27.0338530097194 -54.9517119566826 68.5439621444761 -631.208158361246 776.167791921793
0.00414999989420176 0.05444999679178 0.00564999974519014 16 -0.0237451016902923 -0.294818478257706 0.0156694135658715 0.296187939487701 -17.6482373790989 13.9033960087635 -2.48595392618503 -30.5085714771458 -2.13119326921484 -0.182108973140327 28.3445421683665 -22.7610622810035 0.760417203548742 -22.5789533078631 -30.8304960945516 -44.4119674859094 58.5896874704439 -263.698233211361 513.062168492682
0.006949999935925 0.05444999679178 0.00564999974519014 16 -0.0773118631045024 -0.365562887669075 0.0910706333179648 0.384587063316718 -19.3310772987448 5.12363911909969 -3.67536093175228 -18.4264153979091 -3.185751111808 -0.592663140427332 22.2692275913803 -11.8815915505628 0.853234514291312 -11.2889284101354 -25.9445885231326 -23.5500545170088 36.8125881464196 14.2717184701544 211.5878363102
0.00974999997764826 0.05444999679178 0.00564999974519014 16 -0.142189877827962 -0.403315688061217 0.151702333357728 0.453756656743682 -21.3083943458708 -5.98995380993705 -4.26643486207785 1.26600875034348 -5.08922342193921 -0.885333419541617 15.5512102524123 3.34784302725713 0.458993654730082 4.23317644679875 -19.8176451144902 7.25596256028054 21.5245867182114 21.3958211007004 173.222357354846
0.0125500000193715 0.05444999679178 0.00564999974519014 16 -0.205226067304611 -0.361395745741514 0.187749280509112 0.456042120941773 -22.0264027249568 -19.9496342000916 -4.34684067518678 24.5729535003769 -6.59701150022278 -1.22166238510891 13.4626077979856 21.9983709596238 -0.307610444194823 23.2200333447327 -17.8094484731724 44.5225877004685 53.2785812404478 -231.079455489268 729.729120303054
0.0153500000610948 0.05444999679178 0.00564999974519014 16 -0.272423839966456 -0.266036773805196 0.235033749530364 0.447471984616968 -16.6787927643259 -34.7119590446463 -4.28381414820743 45.6261415960941 -6.71873224838306 -1.87039044912888 10.5831526657368 38.910527981739 -0.730593325800238 40.7809184308678 -14.8669668139443 80.3381006407404 91.3144042573445 -1720.80512606779 1831.04131590288
0.018150000102818 0.05444999679178 0.00564999974519014 16 -0.303098780314128 -0.104436326584934 0.254033418035057 0.409033977093641 -6.44768435538664 -45.657375454568 -4.08164246045799 59.4861509005145 -5.70861809268954 -2.79659117738983 5.71548019616942 47.949759321254 -0.173432276673271 50.7463504986438 -9.79712265662741 105.143526355082 117.159450475248 -2871.35269113788 2912.32160931487
0.0209500001445413 0.05444999679178 0.00564999974519014 16 -0.310028664271037 0.0714100817513342 0.274271942841976 0.420050319694828 6.87383999118447 -47.7321245705504 -3.59710320969482 59.9301647968528 -4.75531507112077 -3.59748377605035 -2.60686092604379 45.959560336948 1.50993086824438 49.5570441129983 -0.990242283651028 107.662289367403 118.524469004626 -3007.79020706057 2987.06726774467
0.0237500001862645 0.05444999679178 0.00564999974519014 16 -0.261557296117147 0.237153939145501 0.24385746886391 0.42909285140288 20.149852005631 -39.4670633779099 -2.81454940523028 46.0311897375479 -4.74032625234497 -3.84646356361526 -13.8425816832781 35.6339964612308 3.12115617453978 39.4804600248461 11.0280322780478 85.4982531154578 94.8170633667486 -1672.61587371458 1867.39878571144