TITLE="DynamicStudio Exported Data"
VARIABLES= "X (m)[m]" "Y (m)[m]" "Z (m)[m]" "Status[-]" "U[m/s]" "V[m/s]" "W[m/s]" "Length[m/s]" "dU/dX[1/s]" "dU/dY[1/s]" "dU/dZ[1/s]" "dV/dX[1/s]" "dV/dY[1/s]" "dV/dZ[1/s]" "dW/dX[1/s]" "dW/dY[1/s]" "dW/dZ[1/s]" "Vorticity X[1/s]" "Vorticity Y[1/s]" "Vorticity Z[1/s]" "Vorticity Magnitude[1/s]" "Lambda-2[1/s²]" "Q-Criterion[1/s²]"
ZONE T="DynamicStudio Data" I=26 J=26 F=POINT
-0.0350500006899238 0.0600499968752265 0.00564999974519014 16 -0.476055513421694 0.203087796747762 0.677351528920699 0.852454455544847 16.7284929908705 -11.9566134864218 -4.10644614064834 17.893724913173 -12.7718922519527 -3.37824861627176 -23.0338531337626 17.8165270115938 1.12375697167331 21.1947756278655 18.9274069931143 29.8503383995948 41.2129585442355 13.1714515683295 -29.6585193150061
-0.0322500006482005 0.0600499968752265 0.00564999974519014 16 -0.427528232137362 0.252510702128833 0.609968952617298 0.786513933202163 28.009078388041 -10.9038009383519 -3.24976165031277 22.6931779692691 -13.0447854527466 -2.87486125999729 -39.2957396596947 16.0959490043662 -0.505976900408117 18.9708102643635 36.0459780093819 33.596978907621 52.8011473782384 11.7713543002767 -206.930277153059
-0.0294500006064773 0.0600499968752265 0.00564999974519014 16 -0.31298906882604 0.331157419849769 0.446237816366677 0.637773927565127 42.6961311690415 -8.76917197414386 -1.84457445991224 24.1805080333055 -12.9048466767301 -2.11606560910319 -60.0838762024819 12.5979399068276 -2.44288866660609 14.7140055159307 58.2393017425697 32.9496800074493 68.5127698927596 56.2350749807826 -495.891900422963
-0.026650000564754 0.0600499968752265 0.00564999974519014 16 -0.181323980490367 0.389761703421439 0.263844892717898 0.504387449058927 46.0903110555343 -5.85748567017735 -0.922029924750333 8.52330179376857 -12.3976388565326 -1.85599216778594 -64.8028081872731 7.90896416678058 -2.09376507836655 9.76495633456651 63.8807782625228 14.3807874639459 66.203589417227 126.681087183145 -637.101606386967
-0.0238500005230308 0.0600499968752265 0.00564999974519014 16 -0.0481001154581706 0.37923676436573 0.0768398738039347 0.389921159671903 38.277034411484 -1.98650905888469 -1.0702014046475 -11.4937133687396 -11.5964099831438 -2.52517082156985 -55.0986457822534 2.06730531562711 0.491102678665274 4.59247613719696 54.0284443776059 -9.50720430985491 55.0504366260986 143.842791253741 -507.35197262452
-0.0210500004813075 0.0600499968752265 0.00564999974519014 16 0.0393003292878469 0.324808167860732 -0.0501000756692762 0.330990754211119 26.5554343409184 2.75298600077672 -1.94407511739579 -23.2050698973495 -10.3646518112355 -3.52177007115479 -38.3870237841409 -4.0812174786168 3.28051417359715 -0.559447407462006 36.4429486667451 -25.9580558981263 44.7461971003009 60.3836361133458 -247.240873834738
-0.0182500004395843 0.0600499968752265 0.00564999974519014 16 0.10790598432223 0.25020200675237 -0.144601584198341 0.308471009639694 15.2920467757203 7.86788155027878 -2.71390029102664 -26.7882680915381 -8.33054405052322 -3.86761105214404 -21.1210201879615 -9.54992463876104 4.3639155880339 -5.682313586617 18.4071198969349 -34.6561496418169 39.6504660576996 -19.9287633368366 19.4995243372597
-0.015450000397861 0.0600499968752265 0.00564999974519014 16 0.133425303300222 0.179964102132168 -0.177456585125377 0.285797531867149 7.90804371516693 12.1571598507343 -2.97712275963957 -25.1869040208429 -5.50403494656439 -3.16529250410852 -8.69874796449046 -13.3840769188291 3.9208107278115 -10.2187844147206 5.7216252048509 -37.3440638715772 39.137445705408 -217.511677209338 203.838973837907
-0.0126500003561378 0.0600499968752265 0.00564999974519014 16 0.158779168128967 0.117345089009056 -0.199584008603124 0.280739150522976 5.32062159284733 14.6359460523997 -2.66681977727829 -24.1891669291882 -2.67870271415566 -1.78161356258641 -5.41174369497155 -15.4793301355133 2.9483446006978 -13.6977165729269 2.74492391769326 -38.825112981588 41.2619854667614 -314.190746450262 305.557936363313
-0.0098500003144145 0.0600499968752265 0.00564999974519014 16 0.167437560558319 0.0524591484386474 -0.212859942592137 0.275856219978736 4.16221621122793 15.1578826788525 -1.96501510394095 -25.1951894034472 -0.754941249603034 -0.484008767687209 -11.5953339303871 -16.8788200538163 1.37615731053448 -16.3948112861291 9.63031882644612 -40.3530720822997 44.6083322293724 -364.99119555765 352.497939486028
-0.00705000027269125 0.0600499968752265 0.00564999974519014 16 0.182986396153768 -0.0193088576085089 -0.27111959627228 0.327662461448262 3.7368529762016 14.3104279084913 -1.09005386662072 -27.5190120469771 -0.0385996983470549 0.309638038110887 -20.1633837177336 -18.0012367153169 -1.32181052396813 -18.3108747534278 19.0733298511129 -41.8294399554684 49.4851704335067 -404.548772939722 372.37089974498
-0.004250000230968 0.0600499968752265 0.00564999974519014 16 0.188005275726318 -0.10025293591961 -0.33400843871447 0.396179595630451 -1.31313823296096 12.7326818562313 -0.26680231879426 -29.7818250979921 0.142000328139109 0.677786155381195 -21.9547816447671 -18.4170785402905 -5.10209164911895 -19.0948646956717 21.6879793259728 -42.5145069542234 51.4049181163684 -387.640251233047 391.616545140576
-0.00145000018924474 0.0600499968752265 0.00564999974519014 16 0.173345288435618 -0.185277693485065 -0.401493548928993 0.474945768017329 -9.32791234931497 10.4323478428054 0.155774170488171 -30.6463059680199 0.595300300612357 0.822588613957766 -9.76750845358037 -17.4023438793244 -8.35131047985719 -18.2249324932821 9.92328262406854 -41.0786538108254 46.0225542677878 -314.213695002804 402.925264907055
0.0013499998524785 0.0600499968752265 0.00564999974519014 16 0.130964024066925 -0.270274003001202 -0.389195715417154 0.491602397468896 -21.1008538890719 6.88055094190184 -0.20380009194229 -28.8405741499589 1.89443945358951 0.929557674235008 14.3313906557175 -14.7948422377409 -8.91613354598999 -15.7243999119759 -14.5351907476598 -35.7211250918607 41.6476566026345 78.333221657461 346.38510344148
0.00414999989420176 0.0600499968752265 0.00564999974519014 16 0.0451171755790711 -0.343052467478944 -0.312957911666405 0.466543898738609 -31.9871040291285 1.52285464558814 -1.22176191708137 -20.0104820325646 4.42365069447038 1.08463887237575 42.6634711099387 -11.3433338950883 -6.13678266078393 -12.4279727674641 -43.8852330270201 -21.5333366781527 50.438603999708 16.5191822374946 122.55222820423
0.006949999935925 0.0600499968752265 0.00564999974519014 16 -0.0623243765036265 -0.376125337161745 -0.136058021681383 0.404804128468885 -41.0031486164959 -5.40761795292771 -2.07508718902855 -0.653125434092249 8.13234504265875 1.24039372359431 65.8894138173873 -7.14758822455463 -0.997632553449786 -8.38798194814894 -67.9645010064158 4.75449251883546 68.6450059168563 49.3514284638592 -158.598519426723
0.00974999997764826 0.0600499968752265 0.00564999974519014 16 -0.199808851877848 -0.338604419088612 0.0754771688169179 0.400341520364423 -42.7118856619474 -12.9194701914923 -1.77053231768581 28.572904818919 11.8305653450767 1.21802674015451 71.383021958978 -1.36762099640305 4.04761488789351 -2.58564773655756 -73.1535542766639 41.4923750104113 84.1412221300058 40.2597032493937 -133.102907858657
0.0125500000193715 0.0600499968752265 0.00564999974519014 16 -0.31319056391716 -0.210466129349229 0.284065672367966 0.472310943286157 -32.8404966795528 -19.6943279436792 -0.148495710237794 57.1218442176791 12.9925081712639 0.875396396766996 56.07082482325 6.52275521082259 7.08726683644734 5.64735881405559 -56.2193205334878 76.8161721613582 95.3584236884459 -141.615308672661 560.244201135486
0.0153500000610948 0.0600499968752265 0.00564999974519014 16 -0.390921196540197 -0.0210991137016875 0.410204191560624 0.567037946946517 -11.2323399161762 -24.3800695190958 1.76310096679337 73.4841508343687 9.71676643073912 0.473633336801773 22.4672514651658 14.9295984084092 7.9004925170141 14.4559650716075 -20.7041504983724 97.8642203534646 101.069492921466 -1693.01131508219 1623.74971718609
0.018150000102818 0.0600499968752265 0.00564999974519014 16 -0.378646493156751 0.18996400735341 0.424290101077058 0.599567828307734 14.5188531985939 -25.5938229550419 2.78424953529577 68.6592951075041 2.78764048802114 0.318089734419989 -10.7620424539576 20.0365350140806 7.75773157115861 19.7184452796606 13.5462919892533 94.253118062546 97.2418087831428 -1538.62984688179 1955.57711427412
0.0209500001445413 0.0600499968752265 0.00564999974519014 16 -0.307218622763952 0.34816720822244 0.354609797386608 0.584253194648483 33.1242541503272 -22.5150933711654 2.46029888708468 45.4629914972693 -4.47387880079089 0.426259973864336 -34.4706499686831 18.8005233812606 7.8207833490899 18.3742634073963 36.9309488557678 67.9780848684347 79.5143292842984 58.9243095114135 1176.27216968709
0.0237500001862645 0.0600499968752265 0.00564999974519014 16 -0.185019777615865 0.433110174810669 0.222499956280614 0.520886717222111 40.6689854536707 -15.448064824601 1.65703164102704 15.4823578796399 -8.95968025909496 0.439137486352512 -42.7518350607755 11.7740962550366 7.45326762047033 11.3349587686841 44.4088667018025 30.9304227042409 55.2930355532164 20.1152375032026 176.799996084183
0.0265500002279878 0.0600499968752265 0.00564999974519014 16 -0.0642245846986771 0.429584652187914 0.0966643866227363 0.444985139433081 37.0326263879999 -6.18544944939081 1.4074739509464 -7.40691634095397 -9.9013513991489 -0.0129287615812764 -41.4157831538806 2.57858219947027 5.91196858584188 2.59151096105155 42.823257104827 -1.22146689156317 42.9189848376514 117.18083282715 -193.763934454288
0.029350000269711 0.0600499968752265 0.00564999974519014 16 0.0406539777914683 0.391658240702236 -0.0304991464297442 0.39494192149376 27.9430991142163 2.78997732869957 2.05260764054971 -15.0978587297688 -8.52233161575097 -0.801593554679731 -33.1645255658279 -5.4534747229667 3.25429489593511 -4.65188116828697 35.2171332063776 -17.8878360584683 39.77261807493 51.8457155061883 -69.1144805267012
0.0321500003114343 0.0600499968752265 0.00564999974519014 16 0.109813621838887 0.347207931363179 -0.10766630795047 0.379742561494702 15.2337615310845 9.31518444777084 3.12517626018608 -11.127472410113 -6.68860562338399 -1.53006400073147 -19.1301295598475 -10.8700549272598 0.724113715341817 -9.33999092652834 22.2553058200336 -20.4426568578838 31.6296741535546 5.15356541237974 51.1026465126264
0.0349500003531575 0.0600499968752265 0.00564999974519014 16 0.136862910191218 0.331288148448803 -0.149063329768057 0.388205061494805 8.43989894857316 12.1991935935563 3.73816377377756 -6.1066995641092 -5.62604695193113 -1.85668183714881 -13.089427598466 -13.4006679450198 -0.506750381585678 -11.543986107871 16.8275913722436 -18.3058931576655 27.4141782833224 -48.141765649186 49.6372691618925
-0.0350500006899238 0.0572499968335032 0.00564999974519014 16 -0.442421643733978 0.236282374212072 0.626743985514234 0.802729278515388 16.4466106143886 -22.5783196298768 -4.79903572316699 18.7012879554318 -17.3986525480804 -4.17767178101911 -22.1914512560214 30.6418650625122 2.85261042362987 34.8195368435313 17.3924155328544 41.2796075853086 56.7353705060836 -99.0011298612636 154.893076193892
-0.0322500006482005 0.0572499968335032 0.00564999974519014 16 -0.39645875732104 0.289543117353217 0.563613137756474 0.747445337208589 26.8146100848865 -21.640828050585 -3.96086504723476 22.8589219058713 -17.7426197651708 -3.45923501271121 -36.7501358492129 28.3889866285258 1.19833968563446 31.848221641237 32.7892708019781 44.4997499564562 63.7939906858157 9.99203414541835 -17.5622585184271
-0.0294500006064773 0.0572499968335032 0.00564999974519014 16 -0.290072546402613 0.365826953785145 0.413491042301369 0.623655581515701 40.2972629438725 -18.7590345103307 -2.49753859429961 24.2362030438819 -18.0107049710216 -2.28891788799382 -55.7341535881726 22.6596632362475 -0.855182526044361 24.9485811242413 53.236614993873 42.9952375542127 72.8365246868759 55.3201381754234 -377.525510755981
-0.026650000564754 0.0572499968335032 0.00564999974519014 16 -0.163763612111409 0.425333736985158 0.240070642408294 0.515132237212802 42.1130250185916 -13.3534423495411 -1.26993810373492 8.42874844533747 -18.1409159065661 -1.53509979980234 -58.9071933571579 13.977317705172 -0.847933913176818 15.5124175049743 57.637255253423 21.7821907948785 63.5385876914286 251.234919806716 -725.0947150936
-0.0238500005230308 0.0572499968335032 0.00564999974519014 16 -0.0430093510945637 0.411712478404127 0.0738913978084262 0.420496025932859 33.0611439018845 -5.4505913400964 -0.945021774552059 -12.2062103802854 -17.6009418377188 -1.78231920083874 -48.5550631114721 3.48533982132664 1.29363212126627 5.26765902216538 47.61004133692 -6.75561904018901 48.3746075569942 360.068578348929 -668.11212532832
-0.0210500004813075 0.0572499968335032 0.00564999974519014 16 0.033858570655187 0.355798878218484 -0.039037828592894 0.359531913200472 20.9921136918278 3.74878813203988 -1.36486773252328 -24.6790660276179 -15.8250347532074 -2.5504091811009 -32.7190750353949 -6.67668400011929 3.50017597726765 -4.1262748190184 31.3542073028716 -28.4278541596578 42.5235858271182 174.665008686725 -283.28413923572
-0.0182500004395843 0.0572499968335032 0.00564999974519014 16 0.0855057525634766 0.275122444200485 -0.115545141321296 0.310409846343916 10.3278610853791 12.5713292883044 -1.9035282216795 -29.3683294430087 -12.4490131917058 -2.89441047472624 -16.7716868324576 -14.8710637176544 4.03401226390268 -11.9766532429282 14.8681586107781 -41.9396587313131 46.080769718784 -141.172676501434 157.1021657655
-0.015450000397861 0.0572499968335032 0.00564999974519014 16 0.0994969705740611 0.196385049332554 -0.139606412152449 0.260685030388868 4.87447703710337 19.139322223224 -2.19678151740033 -28.0022367238789 -7.99578883851875 -2.38742793879708 -6.40554509388313 -20.235549183743 3.29765871840233 -17.8481212449459 4.2087635764828 -47.1415589471029 50.5825632286482 -418.649428283876 424.293022918351
-0.0126500003561378 0.0572499968335032 0.00564999974519014 16 0.11668447136879 0.124621303385939 -0.156233576974676 0.231418810148454 4.29516843372971 22.3720799931834 -2.10065245159063 -26.4845625031602 -3.82683797231375 -1.3001355499358 -4.16184730584009 -23.0802307045871 2.43399032674061 -21.7800951546513 2.06119485424946 -48.8566424963435 53.5312299988368 -542.965863239447 538.467725872376
-0.0098500003144145 0.0572499968335032 0.00564999974519014 16 0.12426434357961 0.0535891330754384 -0.16609429695333 0.214244574609183 4.74083434289587 22.6449361451488 -1.6968934943032 -26.2804432425557 -1.0874423807509 -0.268246080185682 -10.2476925442149 -25.2112718404563 1.36683049944413 -24.9430257602707 8.55079904991171 -48.9253793877045 55.5784440831184 -571.053898856881 570.805074811985
-0.00705000027269125 0.0572499968335032 0.00564999974519014 16 0.142650017738342 -0.0193890045664739 -0.219195208177747 0.262243208390444 4.67291531241278 21.4127406007234 -1.07280024990525 -27.7079343000887 -0.0520468056161326 0.350841304530827 -18.5003217854995 -27.8478362716957 -0.849073078018498 -28.1986775762265 17.4275215355943 -49.1206749008122 59.2598061643207 -593.953757947245 579.059165759689
-0.004250000230968 0.0572499968335032 0.00564999974519014 16 0.151252841154734 -0.100378250226689 -0.281528202802874 0.334979617364053 -0.0828781995457874 19.7723335818504 -0.377511121029145 -29.8713751056975 0.16622544637221 0.598747522187366 -20.8729865024188 -30.4540794046202 -4.46032985043817 -31.0528269268076 20.4954753813896 -49.6437086875479 62.0390230702381 -607.46459835401 600.595780510006
-0.00145000018924474 0.0572499968335032 0.00564999974519014 16 0.143747131029765 -0.186590600199997 -0.350640742636557 0.422407646899296 -7.21718878152756 17.1981279851231 0.0725232586101426 -31.1406493106828 0.599018805916075 0.658565193330153 -10.9539152508422 -30.6877126366953 -7.83824262481102 -31.3462778300255 11.0264385094524 -48.3387772958059 58.6584083525406 -553.953369938297 604.116735614035
0.0013499998524785 0.0572499968335032 0.00564999974519014 16 0.109483650922775 -0.274767678153197 -0.348285942665389 0.45693221010933 -17.0253024516139 12.1957852801788 -0.0984354462175493 -30.3028306531232 2.12257226741756 0.730480326800938 10.4400231866796 -26.4791055842567 -8.55663003281433 -27.2095859110576 -10.5384586328971 -42.498615933302 51.5514600380515 -293.217219661784 481.316663905429
0.00414999989420176 0.0572499968335032 0.00564999974519014 16 0.0408245380719503 -0.354791037503552 -0.280232520190378 0.453953288977936 -25.8430388822651 3.7620674612952 -0.818174018617425 -22.6831535015883 5.41442982597871 0.904255059243276 36.9249051202047 -17.9996749063689 -5.62054523889857 -18.9039299656122 -37.7430791388221 -26.4452209628835 49.8121300769189 22.6038056573854 106.71744966654
0.006949999935925 0.0572499968335032 0.00564999974519014 16 -0.0478396081924439 -0.398275871191484 -0.113398404799033 0.416859083979596 -33.4727270773995 -7.60226169182607 -1.40501469763596 -4.25476661393068 10.4525110254448 1.09258773175714 58.6469213221216 -6.41719831154712 -0.158331416069233 -7.50978604330426 -60.0519360197575 3.34749507789539 60.6121904358669 108.50969217428 -289.163936083112
0.00974999997764826 0.0572499968335032 0.00564999974519014 16 -0.161216852664948 -0.373880429177952 0.082981369519063 0.415527804837102 -35.0399707559275 -20.3006473907542 -1.05361016227674 25.7241622144563 15.6701547089399 1.07039666597596 62.9618545333851 7.31980586659429 5.00969567206059 6.24940920061833 -64.0154646956618 46.0248096052105 79.0905679253486 22.9077917769021 -65.3993458461073
0.0125500000193715 0.0572499968335032 0.00564999974519014 16 -0.257215369939804 -0.250599201486524 0.268953884018896 0.448660114170853 -26.4059955724701 -32.1487774864612 0.342907556323037 57.3333445983183 17.9200826573677 0.66385908303933 47.1119956791386 22.0696770338901 7.84996926500096 21.4058179508508 -46.7690881228156 89.4821220847795 103.211466508233 -1155.35406109596 1272.57894429764
0.0153500000610948 0.0572499968335032 0.00564999974519014 16 -0.31899725874265 -0.0520517799172861 0.366196407294289 0.488434691226092 -7.65164096096362 -40.6020636902844 1.86803980297359 77.4993485836011 14.7852984410043 0.119774758800199 15.9426576639407 34.7508189133643 8.36935000941986 34.6310441545641 -14.0746178609671 118.101412273885 123.876340227882 -2918.90917403262 3059.26197823856
0.018150000102818 0.0572499968335032 0.00564999974519014 16 -0.305312198797862 0.181382268305266 0.364383772402713 0.508812931813629 13.798117905079 -43.0574428733334 2.51949588073903 74.8512505409405 6.88785390590823 -0.196168568856743 -11.7206228945777 40.531680953319 8.05496836824883 40.7278495221757 14.2401187753167 117.908693414274 125.554763717261 -3282.97193996603 3522.04881602333
0.0209500001445413 0.0572499968335032 0.00564999974519014 16 -0.24074343085289 0.362841672072342 0.296555041541487 0.526836190057922 27.8080794867047 -38.0467761108215 2.02099949303057 50.7011951388829 -2.1217987395377 -0.207559608928162 -28.9336309094611 36.3652462123237 7.96048185028753 36.5728058212518 30.9546304024916 88.7479712497044 100.856143441697 -1358.96360478577 2140.51185336747
0.0237500001862645 0.0572499968335032 0.00564999974519014 16 -0.141448637247086 0.460129787782207 0.189591151995895 0.517370218990895 31.9049424749018 -26.3222346506183 1.21759427670958 18.0167003148647 -8.39907766360809 -0.217243312202143 -33.4036115795165 23.8221460472506 7.30265169728435 24.0393893594527 34.621205856226 44.338934965483 61.1756592901775 -1.3027530709961 423.770115370137
0.0265500002279878 0.0572499968335032 0.00564999974519014 16 -0.0471186490853628 0.458993042681056 0.0893648290203176 0.469979630395907 27.5534353769804 -11.1665391192332 1.06654084871399 -7.57649589628591 -10.449950163483 -0.613601739668963 -32.1384241632366 8.26173492720295 5.36387737170097 8.87533666687191 33.2049650119506 3.5900432229473 34.5576288645186 158.00991679842 -241.447909913476
0.029350000269711 0.0572499968335032 0.00564999974519014 16 0.0301830462614696 0.414651675278631 -0.0126081650562507 0.415939892194874 20.1392647307606 3.12467734921198 1.81453759694718 -16.525733446256 -9.31216915279648 -1.33404548478332 -26.3947726818334 -5.10802463995661 2.47632751742787 -3.77397915517329 28.2093102787806 -19.650410795468 34.5853545521633 53.913757673792 -68.0112499066605
0.0321500003114343 0.0572499968335032 0.00564999974519014 16 0.0806434456507366 0.365215192414665 -0.0764914102924134 0.381754420990021 10.8691799771316 13.1180242469302 2.92241202658796 -12.4029410609801 -7.22006778289782 -2.00276932002882 -15.6073751578779 -13.5950051911563 0.00360810919329541 -11.5922358711275 18.5297871844659 -25.5209653079103 33.6013781836551 -90.2243045333164 102.622553349404
0.0349500003531575 0.0572499968335032 0.00564999974519014 16 0.0993107120196024 0.345178712868753 -0.107850418768163 0.375023564816982 5.93206091917698 17.3572154287533 3.5363299570413 -7.26247485962864 -5.91352692400853 -2.30302276774822 -10.8000621301394 -17.0373437433148 -1.0892142500205 -14.7343209755666 14.3363920871807 -24.619690288382 32.0743121919122 -71.8610807314978 89.9119439383325
-0.0350500006899238 0.05444999679178 0.00564999974519014 16 -0.351335042715073 0.295884834107322 0.509898663025039 0.686280404680945 14.9402392546253 -50.3403445310121 -5.53572448739205 19.4121317599392 -11.2014425417602 -4.77541017899293 -18.8077374893791 68.5664540452604 6.0238446926168 73.3418642242534 13.2720130019871 69.7524762909514 102.081258445091 -770.078818646669 1055.70158965426
-0.0322500006482005 0.05444999679178 0.00564999974519014 16 -0.30401150782903 0.352835339235813 0.448062551002173 0.646278440857118 23.1649380509836 -47.1260402898134 -4.75525964238782 22.9824043642921 -11.2179057179263 -3.81523811145671 -29.1682383680522 62.1095304092054 4.32290872553606 65.9247685206621 24.4129787256644 70.1084446541054 99.283748149334 -411.61678348445 973.113654078441
-0.0294500006064773 0.05444999679178 0.00564999974519014 16 -0.208318756421407 0.429200920367342 0.324235514040726 0.576835160931083 33.2335229031831 -39.2944217554755 -3.25904551117196 24.9855733750834 -11.8226733016978 -2.09912305309182 -42.9806084467879 47.5034111789384 2.17532599017909 49.6025342320302 39.721562935616 64.2799951305589 90.3887810420768 46.8911127735996 595.099898144274
-0.026650000564754 0.05444999679178 0.00564999974519014 16 -0.101228655179342 0.495935780754856 0.182240303143238 0.537969392579249 31.6462187554837 -27.1694676124679 -1.61023091431539 9.72872566030925 -13.7418099123265 -0.621070009965953 -43.3190408455434 27.8440590570148 1.6562342285486 28.4651290669807 41.708809931228 36.8981932727772 62.5409071366445 44.9374955612948 -193.358679787388
-0.0238500005230308 0.05444999679178 0.00564999974519014 16 -0.0173888496557872 0.480369785750906 0.0640060801567355 0.484927088799701 20.5720541328098 -12.11642258973 -0.581952291073545 -11.7767528922575 -16.0112186841734 -0.217686742105913 -33.0644806870812 7.25730200485466 2.89718310114024 7.47498874696057 32.4825283960076 0.339669697472463 33.3332489155799 384.809058816611 -476.524328750708
-0.0210500004813075 0.05444999679178 0.00564999974519014 16 0.0217109115918477 0.420632816330569 -0.0119449818770712 0.421362091850202 8.77010271721499 3.39529868182119 -0.305257449256234 -26.3945694451073 -16.5010798392234 -0.635814004285315 -20.6368413598703 -10.153490273615 3.90816803558519 -9.51767626932964 20.3315839106141 -29.7898681269285 37.301416982494 25.0078333778641 -98.0679568253766
-0.0182500004395843 0.05444999679178 0.00564999974519014 16 0.035289889574051 0.324210481564902 -0.0569218543823808 0.331055750847231 0.424255394810705 16.6983741907379 -0.467590466269834 -33.8631742691264 -13.666753157118 -1.06510517924592 -8.69595239425359 -22.1170786698084 3.34969388075093 -21.0519734905625 8.22836192798375 -50.5615484598643 55.3837675724977 -352.130703181305 487.680288279636
-0.015450000397861 0.05444999679178 0.00564999974519014 16 0.0241175401210785 0.226879907393983 -0.0628299615277016 0.236651119131448 -0.756220082526685 25.6646840660167 -0.793359789351213 -33.3245353868951 -8.30283402117113 -1.02015507736337 -2.78092439811632 -28.4529483376906 2.0538104052362 -27.4327932603273 1.98756460876511 -58.9892194529118 65.0863777667929 -763.213514882405 811.704169293037
-0.0126500003561378 0.05444999679178 0.00564999974519014 16 0.0304039955139159 0.137964551402565 -0.0713501184412598 0.158270211311235 2.51175351837313 29.846038331044 -1.02962784354021 -30.8038256216394 -2.8302231058807 -0.55989671727068 -2.461698095125 -30.9330367233285 1.36994620917441 -30.3731400060578 1.43207025158479 -60.6498639526833 67.8452979690712 -893.062054972224 891.973112580387
-0.0098500003144145 0.05444999679178 0.00564999974519014 16 0.0390613985061645 0.0558144021794821 -0.0732703161441411 0.10004788639333 5.43486261476687 30.6625688225641 -1.12114146100341 -28.2482454096952 0.717446588175209 -0.0652238604398258 -7.61676884391092 -33.1330684984783 1.19818457447765 -33.0678446380384 6.49562738290751 -58.9108142322594 67.8686935015755 -841.913121794322 866.734052630533
-0.00705000027269125 0.05444999679178 0.00564999974519014 16 0.064210745493571 -0.0197251913244933 -0.113781737790365 0.132130189072079 5.61483078917474 30.2588206183565 -0.958077142905893 -27.9499206860492 1.89183956614039 0.236433306566306 -14.0632610476239 -37.5644885054186 -0.000131054261293506 -37.8009218119849 13.105183904718 -58.2087413044057 70.6322383848587 -818.566973878768 851.760818861821
-0.004250000230968 0.05444999679178 0.00564999974519014 16 0.0747594054539997 -0.101269078168164 -0.158409896729475 0.20233163439934 1.50011863748528 29.3743153234366 -0.539523479250231 -29.728768898666 1.77294749308095 0.32649231728303 -16.924903987738 -43.3433886250506 -2.96758740432389 -43.6698809423336 16.3853805084877 -59.1030842221026 75.2908610688606 -876.903535388096 871.228653867706
-0.00145000018924474 0.05444999679178 0.00564999974519014 16 0.0746147267023722 -0.187697316540677 -0.2192510485393 0.298108474155001 -3.14077783485513 26.2891131364603 -0.0497680238704379 -31.441104209862 1.49800282568478 0.324290413836078 -12.1678365373014 -45.843916621197 -6.2872738567811 -46.1682070350331 12.118068513431 -57.7302173463223 74.9074690546911 -838.618963644476 846.443601518285
0.0013499998524785 0.05444999679178 0.00564999974519014 16 0.0555809481938681 -0.27990109292994 -0.234338916057216 0.369254101134132 -8.27995332421833 18.4696957673367 0.193423331449518 -31.9157320282082 1.8878056384475 0.384764797318733 1.82006169378046 -40.2186408942774 -7.3482799295782 -40.6034056915962 -1.62663836233095 -50.3854277955449 64.7300072629242 -612.352835681305 635.936883543424
0.00414999989420176 0.05444999679178 0.00564999974519014 16 0.0228613197803498 -0.371349769265701 -0.206210456133607 0.425377530312332 -12.5490600945479 4.86408567110758 0.110408396012325 -26.2097109348656 3.73540688824856 0.580218456647506 21.9902025027135 -25.1434074617749 -4.68706260944602 -25.7236259184224 -21.8797941067011 -31.0737966059731 45.8912971711626 -113.291879979162 134.081344365821
0.006949999935925 0.05444999679178 0.00564999974519014 16 -0.0216563836733501 -0.433496298075188 -0.0948244166265552 0.444274362739137 -17.4048858215156 -13.1334052193722 0.0598811579903629 -9.70373787840047 7.67285438652951 0.798820575727648 39.4929131427193 -2.63717325970325 0.597271858966268 -3.4359938354309 -39.433031984729 3.42966734097171 39.7307523615587 153.566487472014 -267.059197838747
0.00974999997764826 0.05444999679178 0.00564999974519014 16 -0.0803942855199178 -0.431753093885879 0.0388774202434191 0.44089162957474 -18.762793538103 -32.7800379941524 0.491388755668369 20.5577564451773 13.0705877367831 0.792822689725233 42.1284472691687 23.613238005774 5.49115538966483 22.8204153160488 -41.6370585135003 53.3377944393297 71.4096373923422 -308.525974717519 357.963955504825
0.0125500000193715 0.05444999679178 0.00564999974519014 16 -0.12921107172966 -0.319791703688291 0.161609067496417 0.380893325620768 -12.8506758064995 -50.7644048822405 1.43077316380241 56.0999909735469 17.2204191824058 0.353265099987777 27.6250429107915 49.1837268710418 7.908348155746 48.8304617710541 -26.1942697469891 106.864395855787 120.376712307551 -2527.89010664053 2604.24601923746
0.0153500000610948 0.05444999679178 0.00564999974519014 16 -0.152083731094996 -0.113215620402868 0.204527600595999 0.278888467621983 -0.146121417197531 -63.371957988154 2.20698788134347 81.9320196991052 17.1558859080366 -0.35534683838003 3.69586162050402 68.2363338033515 8.13239079243064 68.5916806417315 -1.48887373916055 145.303977687259 160.686904662477 -5027.53212668396 5344.10656369294
0.018150000102818 0.05444999679178 0.00564999974519014 16 -0.129314643541972 0.148242522218109 0.183897925203588 0.269289007057768 12.1846350784737 -66.8086155222657 2.1798759374041 83.1622165751356 12.3096932934334 -0.938623956090951 -11.566020293677 74.5476652059328 7.8052114169243 75.4862891620238 13.7458962310811 149.970832097401 168.458837686348 -5642.07125955796 5992.309799077
0.0209500001445413 0.05444999679178 0.00564999974519014 16 -0.0831313053766887 0.363239235646712 0.135910477423264 0.396642426021549 16.5350254467303 -58.9327454181978 1.37563772401044 58.5318599190426 5.17771512452441 -1.19413373056828 -15.7198184419327 65.3456848784991 7.61680504664492 66.5398186090674 17.0954561659431 117.46460533724 136.079886791116 -3468.1081776318 3800.09482448593
0.0237500001862645 0.05444999679178 0.00564999974519014 16 -0.0352965148289999 0.484297952788766 0.0867012621964871 0.493262060066378 13.5263001452465 -41.0055905087712 0.604689617810866 22.4235539304867 -0.782524347186839 -1.27830218747984 -12.55583227101 43.8271932675374 6.51783755692003 45.1054954550172 13.1605218888209 63.4291444392579 78.9364391198701 -743.824778040114 1055.58504998968