TITLE="DynamicStudio Exported Data"
VARIABLES= "X (m)[m]" "Y (m)[m]" "Z (m)[m]" "Status[-]" "U[m/s]" "V[m/s]" "W[m/s]" "Length[m/s]" "dU/dX[1/s]" "dU/dY[1/s]" "dU/dZ[1/s]" "dV/dX[1/s]" "dV/dY[1/s]" "dV/dZ[1/s]" "dW/dX[1/s]" "dW/dY[1/s]" "dW/dZ[1/s]" "Vorticity X[1/s]" "Vorticity Y[1/s]" "Vorticity Z[1/s]" "Vorticity Magnitude[1/s]" "Lambda-2[1/s²]" "Q-Criterion[1/s²]"
ZONE T="DynamicStudio Data" I=26 J=26 F=POINT
-0.0350500006899238 0.0600499968752265 0.00564999974519014 16 0.0437827004988989 -0.42652569216482 0.00413675061659888 0.428786897707147 -13.1348669463924 -3.64132572511746 0.536074422235354 0.770314778794816 14.8386498553701 0.371905278129112 22.364582676469 2.76080552155845 10.857349651908 2.38890024342933 -21.8285082542336 4.41164050391228 22.3976156970773 192.221851105705 -186.615996602391
-0.0322500006482005 0.0600499968752265 0.00564999974519014 16 0.00390294214089715 -0.421663159613187 0.0679953617664675 0.427128110002238 -22.9970776257023 -6.26796461053268 0.190405521128954 4.43730088840672 16.7059088464484 0.866801190084311 36.3381722627169 4.8523600658929 10.4026471608733 3.98555887580858 -36.147766741588 10.7052654989394 37.9097405604361 254.42431957701 -432.944066761333
-0.0294500006064773 0.0600499968752265 0.00564999974519014 16 -0.0939955242474875 -0.394311543534859 0.211403890404229 0.457174317762324 -35.553926251577 -11.0102498179755 -0.320948490022728 18.5207951956363 18.9960971248433 1.44181629914644 49.3486803263523 8.69960045255853 9.41509501249289 7.25778415341209 -49.669628816375 29.5310450136119 58.239420302489 212.080169354429 -624.065630034978
-0.026650000564754 0.0600499968752265 0.00564999974519014 16 -0.205729340712229 -0.313956064770852 0.348843090571463 0.51242996992344 -37.1356886831347 -15.6468920679901 -0.434169462428971 40.9712485881657 18.5716790392406 1.40290858925087 39.2945208125589 12.781484176982 7.81665659688632 11.3785755877311 -39.7286902749879 56.6181406561558 70.0960388662003 45.5270097645631 -194.578647979793
-0.0238500005230308 0.0600499968752265 0.00564999974519014 16 -0.30924308458964 -0.169811495488587 0.434441844238124 0.559648948352097 -22.8242537005723 -17.9297224090278 0.178895509604827 61.8047430800914 14.0982566900623 0.699258648915608 12.4718506848948 15.3333137756619 5.77336345446024 14.6340551267463 -12.2929551752899 79.7344654891192 81.993032040716 -618.219653511302 723.028236955181
-0.0210500004813075 0.0600499968752265 0.00564999974519014 16 -0.332845561901728 0.018357623004243 0.417289358906758 0.534091358717642 0.836148766768673 -16.8489377859369 1.14169987139082 67.595223372636 6.6166125217411 -0.15920943355223 -15.0678291808693 15.4423780893564 3.93344579447913 15.6015875229086 16.2095290522601 84.4441611585729 87.38978612576 -1119.08740930235 1193.41672908608
-0.0182500004395843 0.0600499968752265 0.00564999974519014 16 -0.298175334533056 0.191442600543378 0.346087082502975 0.495313101080652 24.7040789066585 -12.8703338142352 1.52976586317846 53.7984511979923 -0.961604093721803 -0.66045318029093 -32.1476248195103 13.1275201644738 3.23491238537349 13.7879733447647 33.6773906826888 66.6687850122275 75.9539449084576 -7.81022239142364 803.301759503636
-0.015450000397861 0.0600499968752265 0.00564999974519014 16 -0.185232571760813 0.306367672307339 0.231698113127301 0.426446094955615 38.7015412160808 -7.02344425318805 1.1877623756658 26.1867536493152 -6.24954712577463 -0.765538139813034 -38.1646576466214 8.77315290213222 3.80189720424495 9.53869104194525 39.3524200222872 33.2101979025032 52.3690446077415 9.20086368398979 117.479971947853
-0.0126500003561378 0.0600499968752265 0.00564999974519014 16 -0.0705445766448975 0.330709213307152 0.125071710498305 0.360538560804825 39.0860231948231 -0.681982652307297 0.666789901633161 -2.84818482046705 -8.41230856861318 -0.813389008455495 -38.534364426747 3.10484039316177 4.51511722033996 3.91822940161727 39.2011543283801 -2.16620216815975 39.4559938938879 69.5550153419176 -164.03091523794
-0.0098500003144145 0.0600499968752265 0.00564999974519014 16 0.0445818972587586 0.289198389025405 0.0049065137138435 0.292655646887095 32.0949770024568 4.95611148641341 0.607819349450569 -22.3658640602157 -7.97428188295126 -1.04349569595064 -34.8422332894206 -3.19476444265077 4.23032852416181 -2.15126874670013 35.4500526388712 -27.3219755466291 44.8087551388104 23.6449078337368 -25.2041526594794
-0.00705000027269125 0.0600499968752265 0.00564999974519014 16 0.119596260388692 0.207319187011647 -0.0844880508478188 0.253816353961272 22.3812045062307 8.98689235813698 1.00979645015295 -31.4491221475518 -6.21485296572373 -1.54586461542577 -26.4556085595681 -8.94197722666647 3.15590874215409 -7.39611261124069 27.4654050097211 -40.4360145056888 49.4380645172365 13.1193312996391 207.445203874796
-0.004250000230968 0.0600499968752265 0.00564999974519014 16 0.176686949729919 0.115852234628352 -0.155617607959236 0.26240590385927 14.2430020867259 10.9681395923825 1.17015920846234 -32.7969406440955 -4.07708728127838 -2.21604774394258 -13.4808485549133 -12.4401621167904 2.60878240533543 -10.2241143728478 14.6510077633756 -43.765080236478 47.2712046736374 -183.586103054472 316.378866092325
-0.00145000018924474 0.0600499968752265 0.00564999974519014 16 0.20096727291743 0.0263126021724505 -0.163904457866447 0.260662366147183 6.55828868589729 11.094718639584 0.689228637487782 -31.8363695973846 -2.22995460867003 -2.94154121679949 0.575417534059615 -12.4095351618699 3.62013367676661 -9.46799394507038 0.113811103428167 -42.9310882369686 43.9628729671019 -298.43323342992 317.360271663
0.0013499998524785 0.0600499968752265 0.00564999974519014 16 0.210530502796173 -0.0610222341141586 -0.145040397872217 0.262837445351349 -0.836128827596126 9.78391798091623 -0.253353547964474 -29.5122937252139 -0.733988914168571 -3.59513023975228 9.60021202860498 -9.29579362897239 5.46459905702964 -5.70066338922011 -9.85356557656946 -39.2962117061302 40.9118879068413 -255.139503247335 249.792165596045
0.00414999989420176 0.0600499968752265 0.00564999974519014 16 0.190513050556183 -0.13741437174244 -0.0985228260121463 0.254724712658611 -5.6813726212471 7.72628601185008 -1.02727693113106 -26.9471625730045 0.617341819295985 -4.0035270750988 9.91135348023076 -5.7878103297236 6.17931248799659 -1.78428325462481 -10.9386304113618 -34.6734485848546 36.4017216457636 -167.863600490606 160.411956988601
0.006949999935925 0.0600499968752265 0.00564999974519014 16 0.17352166612943 -0.210239575781549 -0.0845749865937978 0.285417897474002 -7.10491380814295 5.73312506288128 -1.07356242063632 -25.355717508428 2.00072308069903 -4.15304201981271 1.62563098795516 -4.75587178375285 4.13788255367894 -0.602829763940144 -2.69919340859147 -31.0888425713092 31.2116193300656 -67.0855468805879 92.0258737105604
0.00974999997764826 0.0600499968752265 0.00564999974519014 16 0.148067696889242 -0.276820539093266 -0.0979115879947009 0.328846974730823 -8.6297965451025 3.83566839315422 -0.469260052659354 -24.9400862184028 3.48855749601793 -4.10636030511248 -3.24626355829889 -5.95112708563653 -0.223537588615759 -1.84476678052405 2.77700350563953 -28.775754611557 28.9682406509163 -13.3709951261718 40.7448053400202
0.0125500000193715 0.0600499968752265 0.00564999974519014 16 0.122971669435501 -0.346969557569978 -0.115459895521247 0.385799031670425 -15.0106591650879 1.22893145694085 0.339609556870963 -24.1324067745836 5.05348958130991 -4.16043265981784 4.93015541592405 -6.32656395805961 -4.52913160408869 -2.16613129824177 -4.59054585905309 -25.3613382315244 25.8643135029537 48.9461944452709 -29.0973756448726
0.0153500000610948 0.0600499968752265 0.00564999974519014 16 0.0595221904913585 -0.409325289382444 -0.0755135520745534 0.420466859854409 -28.1096952213235 -3.21697593263464 1.00772563817798 -17.0255183521823 6.87868244231084 -4.40337318124632 27.4636569401866 -2.99915904793546 -6.9587536800779 1.40421413331086 -26.4559313020086 -13.8085424195477 29.8758089788584 90.7664081569785 -141.269209184213
0.018150000102818 0.0600499968752265 0.00564999974519014 16 -0.0440603496630987 -0.438961003208533 0.046881310674944 0.443650689214924 -40.9555791357361 -9.93748178887429 1.42665797758683 -0.018796893656843 8.71924873417176 -4.69409614675624 49.100731376887 4.50139395546221 -7.32013578538444 9.19549010221845 -47.6740733993001 9.91868489521744 49.555571056668 103.691043770341 -170.23433366579
0.0209500001445413 0.0600499968752265 0.00564999974519014 16 -0.183787774642308 -0.4068728711328 0.217890659956417 0.496789511833798 -45.3476602697886 -17.6163970159082 1.65493725919983 26.2942069114456 9.52510823247781 -4.65406512462267 54.1643884139031 13.542562921103 -6.90551333717653 18.1966280457257 -52.5094511547033 43.9106039273537 70.8272607833142 7.92941432212954 252.030232157614
0.0237500001862645 0.0600499968752265 0.00564999974519014 16 -0.311907218297323 -0.290915283286789 0.36734307268324 0.562902076674239 -38.0586896550488 -23.7969085812556 1.74588513516462 54.4611074510585 7.8476072888531 -3.79390915148204 41.6580318339063 20.5711977006291 -6.72873122546669 24.3651068521111 -39.9121466987417 78.2580160323141 91.1644391159766 67.4239630993433 1205.93371485252
0.0265500002279878 0.0600499968752265 0.00564999974519014 16 -0.405757291913033 -0.105315946040064 0.461039935991297 0.623127796691634 -22.6809284290706 -25.9177796819806 1.72044090609989 73.4154989324313 3.05661924125683 -2.03131740268455 24.5110933054744 22.2070100958017 -6.08417380160574 24.2383274984863 -22.7906523993745 99.3332786144119 104.756911929483 -1306.09550920714 1955.7770706559
0.029350000269711 0.0600499968752265 0.00564999974519014 16 -0.437957133849462 0.112888620939339 0.503037302645001 0.676459030303816 -7.79348009690976 -23.4245140340252 1.70833050787807 73.3770655001633 -3.56525087090453 0.32162602400676 12.5907487748995 17.3977777651147 -4.27596539057313 17.0761517411079 -10.8824182670214 96.8015795341885 98.8967531617573 -1549.53337186211 1768.07261444791
0.0321500003114343 0.0600499968752265 0.00564999974519014 16 -0.440700122515361 0.297534403884007 0.520759066676643 0.744266971593926 0.0426547151975886 -18.7606818898512 1.77711789760363 49.3893886207338 -9.40696632268171 2.36304945894689 6.50793611292515 9.57249745527917 -1.84604695532651 7.20944799633228 -4.73081821532153 68.150070510585 68.6934414045179 -768.436687600572 909.278661434972
0.0349500003531575 0.0600499968752265 0.00564999974519014 16 -0.428100907405218 0.383751203105785 0.528092790770655 0.780651886867794 2.78746284451193 -15.5746545943311 1.87561799337532 31.4302355503665 -12.2666937553195 3.32000868498751 4.34034390101743 4.4511487818785 -0.243536747232482 1.131140096891 -2.46472590764211 47.0048901446976 47.0830547992978 -314.11959096192 434.711970777554
-0.0350500006899238 0.0572499968335032 0.00564999974519014 16 0.0504521441459655 -0.465596814206316 -0.00435511936705249 0.468342587549646 -10.4299535218952 -5.74128024358108 -0.0472577193007552 -0.310932586022222 18.3222248603296 0.391461451052329 19.0385306795494 2.88776800870339 8.67421905341442 2.49630655765106 -19.0857883988502 5.43034765755886 19.9996885205098 116.663129646419 -124.656546721839
-0.0322500006482005 0.0572499968335032 0.00564999974519014 16 0.0192880507310231 -0.466955130031808 0.053668922339566 0.470424782073729 -19.0349459561323 -9.7295034261784 -0.422315621398308 2.81219203358876 19.6853298397272 0.748148034116614 31.6280415485133 8.00939787376871 8.89814265007752 7.2612498396521 -32.0503571699116 12.5416954597672 35.1744974229668 356.830241469201 -334.19594828198
-0.0294500006064773 0.0572499968335032 0.00564999974519014 16 -0.0638199905554453 -0.45119969116 0.187913391709638 0.492915403777561 -30.1742193331141 -17.4905802783969 -0.960667443648673 18.1952630726874 20.8725747246958 1.02002659987036 42.7819827486585 18.0038127034443 8.98521651218521 16.9837861035739 -43.7426501923072 35.6858433510843 58.9520809805441 161.940747816879 -372.410338911658
-0.026650000564754 0.0572499968335032 0.00564999974519014 16 -0.161002844174703 -0.369058550746013 0.313649234798116 0.510393938248227 -32.5591548505693 -25.9012736127537 -0.978641694108992 43.3981368750465 18.912691255965 0.577253522349234 33.6740270832405 28.8303761023153 8.15957390024029 28.2531225799661 -34.6526687773495 69.2994104878001 82.4709323511496 -246.480127117692 413.248816819729
-0.0238500005230308 0.0572499968335032 0.00564999974519014 16 -0.256223033269246 -0.214479972119249 0.391465004776352 0.514681213162591 -21.3657776169256 -31.1753400819532 -0.122882148992051 66.7565099079178 13.0251769243172 -0.467007894383486 10.6510269403308 35.4210837099711 6.20020882356613 35.8880916043546 -10.7739090893228 97.931849989871 104.855517158165 -1811.11570446232 1769.00114626896
-0.0210500004813075 0.0572499968335032 0.00564999974519014 16 -0.284332957665125 -0.000649935123074101 0.37391934797323 0.469746029274317 -1.41281604080743 -30.7451128990541 1.15342847171144 73.463731145162 4.69878371340528 -1.38043894570095 -12.6290868932421 34.7668103956764 3.85284413218599 36.1472493413774 13.7825153649536 104.208844044216 111.157836168957 -2327.92718594487 2327.23271978947
-0.0182500004395843 0.0572499968335032 0.00564999974519014 16 -0.2594127368927 0.194280470776527 0.306792360919838 0.446275052076719 19.2237246873609 -24.3419951960809 1.85787338833347 58.44295252581 -3.2881531817841 -1.64091570323995 -26.451198942051 27.4032615388842 2.41030958691656 29.0441772421241 28.3090723303845 82.7849477218909 92.1863079703004 -1282.08577432718 1491.92659968755
-0.015450000397861 0.0572499968335032 0.00564999974519014 16 -0.165082563956578 0.32586116444009 0.20544079353412 0.419098641205932 31.5678668781936 -13.6769298259118 1.66524018207474 29.0879488950226 -9.0712020779583 -1.37371127111093 -31.1080992847334 16.1017330536508 2.47161916922501 17.4754443247617 32.7733394668082 42.7648787209344 56.6420143195025 5.04030509351961 241.000113255771
-0.0126500003561378 0.0572499968335032 0.00564999974519014 16 -0.0677666318416597 0.355790556973661 0.113588017960234 0.379580656312892 32.2636240099611 -1.83467683678944 1.03992421759139 -2.22978950918489 -11.8698721540018 -1.13889010369068 -31.485056557135 3.88530432514107 3.2576776731928 5.02419442883174 32.5249807747264 -0.395112672395447 32.9131131629768 140.042392725996 -283.452757840915
-0.0098500003144145 0.0572499968335032 0.00564999974519014 16 0.0293770869572958 0.31170845170971 0.0137035535958906 0.313389469329326 26.7162044055119 8.48713023211057 0.679040743297154 -23.3748213773808 -11.6253190433395 -1.25544250641683 -28.3721516617298 -7.53421689355749 3.64242270349557 -6.27877438714066 29.051192405027 -31.8619516094914 43.5726835107052 26.2744925217351 -47.4247923873847
-0.00705000027269125 0.0572499968335032 0.00564999974519014 16 0.0930434560775757 0.224888666413026 -0.0578885140277756 0.250166098934754 19.1467340488651 15.7567796625133 0.742062702361088 -33.4843231727312 -9.16763700673755 -1.74295433459865 -21.8333040412716 -16.7108654448729 3.49127688649705 -14.9679111102743 22.5753667436327 -49.2411028352445 56.1993928352052 -171.14364569236 373.989990844168
-0.004250000230968 0.0572499968335032 0.00564999974519014 16 0.143777226607005 0.126364389910984 -0.116489408523776 0.22407505935868 13.0966540780594 19.4771823837969 0.737973823790419 -34.9143021152201 -5.72766307191534 -2.42676823599792 -12.0620972143656 -21.5858596736758 3.6235629487578 -19.1590914376779 12.800071038156 -54.391484499017 59.0706880720544 -605.186022873034 588.238644353602
-0.00145000018924474 0.0572499968335032 0.00564999974519014 16 0.168773929278056 0.0320982845500112 -0.124874799109336 0.212387981127946 7.1495438259695 19.9900822366573 0.313312715306469 -33.30841643607 -2.75396565297485 -3.11328884935109 -1.62866183433688 -20.8107406308004 4.71268728160725 -17.6974517814493 1.94197454964334 -53.2984986727272 56.1934251089475 -595.822444992254 602.583804658912
0.0013499998524785 0.0572499968335032 0.00564999974519014 16 0.181692889928818 -0.0590482763168014 -0.11730883955126 0.224188244614953 1.00577819835476 17.9938536235234 -0.429366283106876 -30.632229104067 -0.660638666936925 -3.67423234204159 5.49732450134903 -15.5416875794472 6.09612559205197 -11.8674552374056 -5.9266907844559 -48.6260827275904 50.4029570451659 -492.929064968848 497.88799925679
0.00414999989420176 0.0572499968335032 0.00564999974519014 16 0.169654970963796 -0.139263920251202 -0.0843644601975878 0.23514806144404 -3.45666819083074 14.6131194901782 -0.962603521336626 -27.9607992414796 1.02248980256976 -3.93612847412874 7.00699806404621 -9.70377240242292 6.24677262056541 -5.76764392829417 -7.96960158538284 -42.5739187316578 43.6957529066971 -369.712509511262 358.403999622082
0.006949999935925 0.0572499968335032 0.00564999974519014 16 0.157575998306274 -0.214890364919168 -0.073714168749381 0.276481179923199 -5.13207243115169 11.0799606657602 -0.858014365733882 -26.6041156813715 2.82339755685409 -3.9110574780502 1.80809428508407 -7.32585979869086 4.04264612723192 -3.41480232064067 -2.66610865081795 -37.6840763471317 37.9322899435753 -247.627029290089 243.849031115987
0.00974999997764826 0.0572499968335032 0.00564999974519014 16 0.137352230548859 -0.286537779479695 -0.0791551032425681 0.327467654395427 -6.53520820473911 7.64501650498121 -0.196974349067006 -26.1524664048277 4.7882311111162 -3.73228942475139 -1.89887863520447 -8.45728958495297 -0.0231955607679134 -4.72500016020157 1.70190428613747 -33.7974829098089 34.1685814126355 -132.777745156024 136.745389317549
0.0125500000193715 0.0572499968335032 0.00564999974519014 16 0.118294488191605 -0.359790887401517 -0.0944507177934671 0.390338323362421 -11.8989188638869 3.3076001754879 0.592797364898572 -25.2537854368544 6.60034593138128 -3.70598557593648 4.26348761237921 -9.01286108036151 -3.90969735228255 -5.30687550442503 -3.67069024748063 -28.5613856123423 29.2812165493398 32.4585002206332 -10.2206563869605
0.0153500000610948 0.0572499968335032 0.00564999974519014 16 0.0667244247595469 -0.428191297790812 -0.0613780782461011 0.437683909748184 -22.6563880628412 -3.77547815433685 1.18101379360381 -18.242763567553 8.33057218868919 -3.94298495380047 22.0919637245494 -4.08363503122082 -6.08701981244949 -0.14065007742035 -20.9109499309456 -14.4672854132162 25.428133173441 128.507824608613 -212.606931932421
0.018150000102818 0.0572499968335032 0.00564999974519014 16 -0.0168617192904155 -0.4633190635486 0.0352980610129331 0.464967552992952 -33.3544985402828 -14.5896972895257 1.51968385888468 -0.922457018570655 9.83795543168671 -4.25656667195864 39.9635740347526 7.92503119208491 -6.45194268410565 12.1815978640436 -38.4438901758679 13.6672402709551 42.5807171733812 131.222456639447 -216.86962524164
0.0209500001445413 0.0572499968335032 0.00564999974519014 16 -0.133039983510971 -0.4351856645251 0.179616569747359 0.489232370094785 -37.6540156442724 -27.3247841014839 1.67575289792191 26.7211160113765 10.0460866239009 -4.28594649832901 45.0891091314578 23.1237448281177 -6.0765578370051 27.4096913264467 -43.4133562335359 54.0459001128605 74.5450870083352 -14.3506715508991 543.183328396276
0.0237500001862645 0.0572499968335032 0.00564999974519014 16 -0.242121359109879 -0.315445730825886 0.306069274766681 0.501803908503804 -32.9524369346235 -38.0645109256429 1.70034931745037 57.2968499261042 7.34260203013245 -3.62755377911501 36.1054591691109 35.4087185155163 -5.76645025672078 39.0362722946314 -34.4051098516606 95.3613608517472 108.633932461559 -1140.24484455788 2153.75291655287
0.0265500002279878 0.0572499968335032 0.00564999974519014 16 -0.328355655272802 -0.115941238727731 0.393419923739251 0.525394179242928 -22.2578976534549 -42.8868373881089 1.57425799500415 78.2071697121818 1.31218479120165 -2.19231771189665 25.2024957187981 39.7246179685971 -4.68240941528074 41.9169356804938 -23.628237723794 121.094007100291 130.303805279739 -3221.3778989325 3470.34185155308
0.029350000269711 0.0572499968335032 0.00564999974519014 16 -0.371477396090825 0.12265623187491 0.453439270942666 0.598871588453809 -10.8105317571656 -41.1239050527872 1.42360031700872 78.2797698907826 -6.17490034178109 -0.222608300643363 17.5871114519063 35.6399303218289 -2.0702867162465 35.8625386224723 -16.1635111348976 119.40367494357 125.716420401974 -3216.46139393747 3303.98522211468
0.0321500003114343 0.0572499968335032 0.00564999974519014 16 -0.389119833310445 0.325116376258278 0.498786097012732 0.711268214782621 -3.33884107443384 -36.2799683176246 1.35175515435506 52.4729650152 -12.2139426429409 1.51787725896105 11.5642716577282 28.1956588699642 1.31101002887368 26.6777816110032 -10.2125165033731 88.7529333328245 93.2367025382003 -1771.03590616836 1865.67845301009
0.0349500003531575 0.0572499968335032 0.00564999974519014 16 -0.389983459313711 0.419513155484262 0.526596857824091 0.778063388698413 -0.202988309806257 -32.9636645750605 1.34690592334975 33.2500671761473 -14.9508871017881 2.3339817046543 8.50865736615967 23.457001727914 3.49510929650349 21.1230200232597 -7.16175144280992 66.2137317512077 69.8693847908547 -850.120236822012 979.905892081294
-0.0350500006899238 0.05444999679178 0.00564999974519014 16 0.0660843908786775 -0.526547475281792 -0.00843530847535778 0.530745273057151 -5.27448768126286 -2.67124202004936 -1.23317036418457 -1.42378111514389 12.2900680226207 0.16567643133366 11.6009960697132 -3.34177245038527 4.90564339032841 -3.50744888171893 -12.8341664338977 1.24746090490547 13.3631652096398 16.8860827502361 -19.3514835163195
-0.0322500006482005 0.05444999679178 0.00564999974519014 16 0.0504618446032206 -0.530020910573452 0.025586855392127 0.533032129026693 -10.910405333942 -8.52604807318651 -1.62019108092217 0.928345971545417 13.1817586149737 0.272436724796293 20.2083585020021 5.43545893433932 5.92462117221025 5.16302220954302 -21.8285495829243 9.45439404473192 24.3418968444015 99.2656540861301 -91.1857158080448
-0.0294500006064773 0.05444999679178 0.00564999974519014 16 0.00109989802042643 -0.520672854876417 0.111107722159165 0.532396804558604 -18.5083389066927 -20.5553922695797 -2.11392322154812 17.9522573274516 14.1213655372842 -0.00488794612899663 26.4252432472858 23.2174666525476 7.31003855226544 23.2223545986766 -28.5391664688339 38.5076495970313 53.2597489041231 -124.596412878689 131.558148904463
-0.026650000564754 0.05444999679178 0.00564999974519014 16 -0.0583418019612629 -0.425777124413677 0.181516181215023 0.466516933854445 -21.6745434617485 -34.6951907504652 -1.92177427641176 46.490139460891 13.2322521654063 -1.12894015924823 19.4412466250641 42.9804232132257 7.48405063598225 44.1093633724739 -21.3630209014758 81.1853302113562 94.831811332953 -1431.36867502589 1348.88270990221
-0.0238500005230308 0.05444999679178 0.00564999974519014 16 -0.12532475511233 -0.253276279245814 0.224513911879233 0.36091780851031 -16.2463765654011 -45.4251367216111 -0.692657273407633 72.9050154990343 9.87925832009293 -2.66514230373144 5.60951419847847 55.6640088055987 5.7651150075125 58.3291511093301 -6.30217147188611 118.330152220645 132.075857593117 -3309.29394090225 3266.74895240201
-0.0210500004813075 0.05444999679178 0.00564999974519014 16 -0.153226217428843 -0.00837428454212689 0.212603689517515 0.262199792420978 -4.35315639034886 -48.0344246064933 1.01708221906798 80.9795361982983 4.54134088675209 -3.54318399620767 -6.61380735633989 55.3445153248434 3.04991654404018 58.8876993210511 7.63088957540787 129.013960804792 142.023215319112 -4074.13405610672 4073.43279293228
-0.0182500004395843 0.05444999679178 0.00564999974519014 16 -0.152533167600632 0.208707855861091 0.182777434820309 0.31659584172239 8.48444060212096 -40.7579178746851 2.15295431144747 64.9038472186052 -1.44842196398999 -3.26926702433234 -12.3131684747967 42.5547541774791 0.911334505518929 45.8240212018115 14.4661227862442 105.66176509329 116.075485052617 -2818.32979246912 2805.10133484954
-0.015450000397861 0.05444999679178 0.00564999974519014 16 -0.107335854768753 0.36065432205253 0.137648305396918 0.400673909448509 16.1502397917885 -25.2660720732092 2.17485036121108 33.8401216045399 -6.87844047012821 -2.2779973322045 -13.9837615024199 22.5939144131448 0.39412320191565 24.8719117453493 16.158611863631 59.1061936777491 66.1305894597917 -766.670157360422 829.454185188357
-0.0126500003561378 0.05444999679178 0.00564999974519014 16 -0.0606052637100221 0.401042689634796 0.0992924884727836 0.417573029739698 16.7584484045036 -6.18552237046902 1.40373706499844 -0.522652763641459 -10.5390798491455 -1.51051852661946 -15.3305249237592 1.53147372596517 1.26328098396668 3.04199225258463 16.7342619887576 5.66286960682757 17.9264422950315 118.152815554689 -148.161350718611
-0.0098500003144145 0.05444999679178 0.00564999974519014 16 -0.00843313217163089 0.356636853890183 0.0484751510418331 0.360015004603198 14.1140899454347 11.5999606261656 0.59899268222789 -24.4465344407417 -11.4190566419902 -1.40722890355681 -14.9161964127299 -16.659491937712 2.6236162764612 -15.2522630341552 15.5151890949578 -36.0464950669073 42.1034728606077 -127.014396958155 114.970951586843
-0.00705000027269125 0.05444999679178 0.00564999974519014 16 0.02575621287028 0.260444865644434 0.0161885892293261 0.262215523879122 11.2560608653956 24.8230988393096 0.16592807288362 -36.6651216810862 -9.62422710687629 -1.85621181658545 -13.1950546603143 -29.5770480163537 3.89766274477171 -27.7208361997682 13.3609827331979 -61.4882205203959 68.7587222247187 -763.247622993214 755.459554957479
-0.004250000230968 0.05444999679178 0.00564999974519014 16 0.0608100112279255 0.145537729647864 -0.0218574138860761 0.15923829551456 9.85842817925247 32.2315952003024 -0.0434425431260904 -38.5212182771959 -6.27648637136772 -2.5573068724871 -10.2368174609679 -35.1655829219058 4.96869509299276 -32.6082760494187 10.1933749178418 -70.7528134774983 78.5694926425801 -1112.82628605933 1107.14770044188
-0.00145000018924474 0.05444999679178 0.00564999974519014 16 0.084966622988383 0.0398247660861428 -0.0364613502961584 0.100671590239179 7.84419483036648 34.2622702418521 -0.31015782908789 -35.8701008372964 -3.08158322710599 -3.19205378753838 -6.59242413516519 -32.8022194173506 5.90032716178137 -29.6101656298122 6.2822663060773 -70.1323710791485 76.3857202083529 -1112.5922490461 1126.16837518525
0.0013499998524785 0.05444999679178 0.00564999974519014 16 0.106265996297201 -0.0579959806633997 -0.0551655955253712 0.133038485679201 4.51441409937727 32.0552119495664 -0.685524309393888 -32.4682478962328 -0.777207019751695 -3.63117886849896 -2.71438376428589 -24.8958019022406 6.34747623893567 -21.2646230337417 2.028859454892 -64.5234598457992 67.9674726168872 -948.524845355003 968.727880917415
0.00414999989420176 0.05444999679178 0.00564999974519014 16 0.110116440057755 -0.143137576611092 -0.0511764355905082 0.187704618400397 1.09924496775287 27.3713970233055 -0.825988542220585 -29.5681318783331 0.983015939760818 -3.69479715138729 1.28335718645367 -16.7983679360374 5.66758118995578 -13.1035707846501 -2.10934572867425 -56.9395289016386 58.4659119338093 -746.858479068612 761.196511289878
0.006949999935925 0.05444999679178 0.00564999974519014 16 0.112187991937001 -0.224075572371949 -0.0521610808263843 0.255962469947548 -0.761465143359772 21.978035401348 -0.469301642863997 -28.5017027864005 2.68702792735896 -3.41310233596857 1.81284495794264 -13.4573903350355 3.49132615743712 -10.0442879990669 -2.28214660080664 -50.4797381877485 51.5198979232239 -574.289905523187 586.007443176325
0.00974999997764826 0.05444999679178 0.00564999974519014 16 0.105661970774333 -0.304082299160461 -0.0483225396605364 0.325523523834871 -1.78464843582707 16.291812505423 0.289688237307004 -27.8340307898871 4.30134586318535 -3.01504825730134 0.324070592058561 -14.553660448895 0.251517450117968 -11.5386121915937 -0.034382354751557 -44.1258432953101 45.6095472459065 -394.985409056297 402.449546039602
0.0125500000193715 0.05444999679178 0.00564999974519014 16 0.101330753564835 -0.381723790632871 -0.0564370612534306 0.398956283113913 -4.91776247941807 8.89751268153547 0.998402673597534 -26.3941282101002 5.31113820122553 -2.84340462810467 2.408153480505 -14.3657040488753 -2.60896239622855 -11.5222994207706 -1.40975080690747 -35.2916408916357 37.1517253718268 -168.639755961925 164.44505558074
0.0153500000610948 0.05444999679178 0.00564999974519014 16 0.074302815993627 -0.455198521499212 -0.0347118238710876 0.462527310713766 -10.870368114106 -2.7865853218439 1.36527717739996 -19.1072101509941 5.58570130060448 -3.05333973501788 10.5302182870757 -5.87785052866809 -4.13384411824132 -2.8245107936502 -9.16494110967574 -16.3206248291502 18.9297860944371 95.473297751379 -124.440253113362
0.018150000102818 0.05444999679178 0.00564999974519014 16 0.0345806058247884 -0.493609886429428 0.00800880942299652 0.494884511081581 -17.3269510229907 -19.7859336526825 1.46730241973248 -1.21773378123851 5.23804140371585 -3.3949734065058 20.3691068293735 13.269695890879 -4.45204769586672 16.6646692973848 -18.901804409641 18.568199871444 31.3012373429137 52.8881456624857 -45.8702595213393
0.0209500001445413 0.05444999679178 0.00564999974519014 16 -0.0283502260843913 -0.466712080471528 0.0882045851826357 0.475819241124546 -21.3440574718194 -39.3883525304694 1.43218496897683 28.0267371358355 4.01956584971052 -3.5379496465856 24.8224387706044 37.9321198210787 -4.2781514105196 41.4700694676643 -23.3902538016276 67.415089666305 82.5328113496287 -642.677474002025 1190.90156256139
0.0237500001862645 0.05444999679178 0.00564999974519014 16 -0.0898215325673422 -0.336901166302268 0.158480581281668 0.382996603394795 -21.7120593401033 -56.1989614732836 1.3395004573113 61.328583888508 1.38569535661618 -3.20397190233154 22.5969714751821 59.4223041884623 -3.9421568580816 62.6262760907939 -21.2574710178708 117.527545361792 134.85790466207 -3470.124530917 3656.76487789528