TITLE="DynamicStudio Exported Data"
VARIABLES= "X (m)[m]" "Y (m)[m]" "Z (m)[m]" "Status[-]" "U[m/s]" "V[m/s]" "W[m/s]" "Length[m/s]" "dU/dX[1/s]" "dU/dY[1/s]" "dU/dZ[1/s]" "dV/dX[1/s]" "dV/dY[1/s]" "dV/dZ[1/s]" "dW/dX[1/s]" "dW/dY[1/s]" "dW/dZ[1/s]" "Vorticity X[1/s]" "Vorticity Y[1/s]" "Vorticity Z[1/s]" "Vorticity Magnitude[1/s]" "Lambda-2[1/s²]" "Q-Criterion[1/s²]"
ZONE T="DynamicStudio Data" I=26 J=26 F=POINT
-0.0350500006899238 0.0600499968752265 0.00564999974519014 16 0.05353211303552 -0.317239264666957 -0.0347406024555676 0.323594418418264 -1.30123531960831 4.01069480448637 2.34429955773625 -5.91793295547567 2.37955855364011 0.985198036878361 -2.16732694696317 -11.4521252260209 -3.19553553104326 -12.4373232628992 4.51162650469942 -9.92862775996204 16.5414459120009 -30.7406079967558 33.5563120084508
-0.0322500006482005 0.0600499968752265 0.00564999974519014 16 0.0499646963675817 -0.334062541012342 -0.038879312792172 0.340008607470339 -3.04992468769938 3.0800764950862 2.87503061286822 -4.17692604068069 2.54245113592733 0.459430058331237 -1.3065368659054 -9.25179593003465 -3.83695448436817 -9.71122598836589 4.18156747877362 -7.25700253576689 12.8240985094773 -5.4269938329855 15.0650067831734
-0.0294500006064773 0.0600499968752265 0.00564999974519014 16 0.0347450248400369 -0.341967519353493 -0.0367276380925129 0.345684712482012 -10.2262219003934 0.0792686830451587 4.04966845987119 4.84029712116142 2.37709572422997 -0.561469172686741 5.57696109335092 -4.1785421517329 -5.65225714412181 -3.61707297904616 -1.52729263347973 4.76102843811626 6.17116127747274 2.62139041951841 -5.25807887510271
-0.026650000564754 0.0600499968752265 0.00564999974519014 16 -0.0126695386568705 -0.310268444607888 -0.0001440119370818 0.310527044987412 -20.8052887698803 -5.59509041704577 5.40923566317233 28.3572795272168 0.799210698859194 -1.24788288431759 22.7503302249433 3.78935161899828 -8.02602303287503 5.03723450331587 -17.3410945617709 33.9523699442626 38.4558281262248 6.06804878389632 184.269746380286
-0.0238500005230308 0.0600499968752265 0.00564999974519014 16 -0.092802168528239 -0.188361742442551 0.104436541212878 0.234519465375578 -28.9529143524469 -13.1672794313803 6.41664921663849 53.1644286921633 -3.35361737734091 -0.703567854496704 38.2060754859781 12.8766346481477 -9.67078174244518 13.5802025026444 -31.7894262693396 66.3317081235436 74.7989640645751 137.295641699107 873.461904185197
-0.0210500004813075 0.0600499968752265 0.00564999974519014 16 -0.188678615490596 -0.0208032926461844 0.228222233586324 0.296846399391169 -23.4758025725582 -19.4248234294322 6.80416587594427 66.2394944600485 -9.7396840562696 0.848951785919762 35.4428877701719 19.2487806511456 -10.1535199549505 18.3998288652258 -28.6387218942276 85.6643178894807 92.1797453537083 -79.1182540576075 1595.09091604327
-0.0182500004395843 0.0600499968752265 0.00564999974519014 16 -0.232599377234777 0.172605491335271 0.310617669699326 0.424709857030109 -3.0114915502472 -20.7417656607261 6.25562649064017 58.9698303040645 -15.7075923057849 2.1073876342435 7.02583931626132 19.6341118810681 -9.08306669590132 17.5267242468246 -0.770212825621148 79.7115959647905 81.6193471051747 -869.08127479401 1355.14065874049
-0.015450000397861 0.0600499968752265 0.00564999974519014 16 -0.204261712233226 0.301461763007489 0.265215056582044 0.450489808850155 22.8456155555414 -15.9139487590632 4.83092238639364 34.5739681911301 -18.3242501191159 1.91731256070456 -32.9939465848974 13.5547086559941 -6.75978554590556 11.6373960952896 37.8248689712911 50.4879169501933 64.1496645240146 -176.732404444083 234.418705910942
-0.0126500003561378 0.0600499968752265 0.00564999974519014 16 -0.0931453466415406 0.363468760540733 0.114073690549703 0.392171394119483 37.4953455484559 -7.00338154292934 3.14692139430271 7.25995563658483 -16.5131358055002 0.348917512874756 -58.9935571042682 4.00182284593246 -4.40299171395339 3.6529053330577 62.1404784985709 14.2633371795142 63.8609863132425 245.638704382989 -476.454208543659
-0.0098500003144145 0.0600499968752265 0.00564999974519014 16 0.0214970183372498 0.34586878654547 -0.0802997639546326 0.355718134756998 34.156363401814 2.03473887789142 1.96094055886796 -13.0664243920014 -11.7480173080769 -1.46327914000368 -57.2295263597625 -4.80058047392235 -3.27759256325357 -3.33730133391867 59.1904669186305 -15.1011632698928 61.1775619516079 121.113767420233 -342.929105095425
-0.00705000027269125 0.0600499968752265 0.00564999974519014 16 0.112085717519124 0.297880085196424 -0.220016004353335 0.386914454886364 22.478071513602 8.59402679701086 1.75896650959222 -20.5861123804759 -6.46151795906097 -2.51842303474439 -34.7347213873497 -10.3805457288273 -3.87226485273819 -7.86212269408289 36.4936878969419 -29.1801391774867 47.3823042073063 -2.00004930881252 4.60940744631072
-0.004250000230968 0.0600499968752265 0.00564999974519014 16 0.157728023529053 0.239106667902621 -0.284723295100654 0.403878054386284 11.7320192776856 12.1195132738235 2.22051366220098 -22.4151528573451 -2.43859714228308 -2.5872036772551 -9.78137634729389 -12.8726164260258 -5.51360760975424 -10.2854127487707 12.0018900094949 -34.5346661311686 37.9799716166807 -178.918854885994 180.226390160176
-0.00145000018924474 0.0600499968752265 0.00564999974519014 16 0.182860812346141 0.178778595710949 -0.281198232948082 0.380095131762291 8.04899136846188 13.4912297839334 2.92869218888084 -23.7446297034268 -0.422208845587198 -2.02293575475694 3.62166837600034 -14.1488483410353 -7.26981348666134 -12.1259125862784 -0.692976187119502 -37.2358594873602 39.1666593393975 -221.593114218437 222.271650583672
0.0013499998524785 0.0600499968752265 0.00564999974519014 16 0.205800635814667 0.109370972064983 -0.270236437548883 0.356852411244862 3.70648772939439 13.7880479724996 3.67966597472416 -26.9645958155657 -0.0628662908048488 -1.39649392916663 7.97926344243429 -15.7049404008063 -8.49313393469387 -14.3084464716397 -4.29959746771013 -40.7526437880653 43.4050245309579 -289.98384989878 289.317484523223
0.00414999989420176 0.0600499968752265 0.00564999974519014 16 0.204668080806732 0.028150891737508 -0.241510658439171 0.317818964422279 -3.19653780181685 13.2556562657616 4.2928597353635 -28.7497403458918 -0.441108821032266 -1.056561611736 11.5024757961634 -17.2064520148919 -8.71627961838019 -16.1498904031559 -7.20961606079993 -42.0053966116534 45.5768676883394 -328.999751044851 346.655250018337
0.006949999935925 0.0600499968752265 0.00564999974519014 16 0.187222389777501 -0.0522562093815456 -0.207138199703768 0.284058389119992 -11.4480700471031 11.8686922846031 4.62730600447875 -27.6483541822814 -0.426993910867402 -0.924587638618953 18.1766887120382 -17.1749982604539 -7.53731343996087 -16.2504106218349 -13.5493827075595 -39.5170464668845 44.8247540829848 -107.987731293449 322.555251433646
0.00974999997764826 0.0600499968752265 0.00564999974519014 16 0.137386544545492 -0.125596387839566 -0.133338465433723 0.22897305873119 -15.6689417849907 9.7349032018632 4.34299892527505 -25.1347049895781 0.575292826489295 -0.615966797098446 22.658038260109 -15.0867889510178 -4.82506221934965 -14.4708221539194 -18.315039334834 -34.8696081914413 41.9611121762938 67.60176746396 200.800688733985
0.0125500000193715 0.0600499968752265 0.00564999974519014 16 0.0934745228290559 -0.189199311302659 -0.0678967300949929 0.221684081009694 -16.207728557544 7.13525850869332 3.43117116316829 -22.4628594119299 2.33224311253471 0.136639964889298 20.2386966848768 -12.0519742848544 -1.54942771353783 -12.1886142497437 -16.8075255217085 -29.5981179206233 36.1538907440825 49.970310885009 76.1813560355493
0.0153500000610948 0.0600499968752265 0.00564999974519014 16 0.0389587072531383 -0.245683762087331 -0.00805617788922973 0.248883896277769 -17.1748188401309 3.78929450783335 2.29798523566718 -19.5565834322117 4.39877224962119 1.36716216279433 15.1949105953468 -9.04001597966643 0.945865242999815 -10.4071781424608 -12.8969253596796 -23.345877940045 28.6298804994632 13.14828075693 -36.0853931344175
0.018150000102818 0.0600499968752265 0.00564999974519014 16 -0.0125440361102422 -0.291774306679145 0.0260839714069152 0.293206364945216 -20.2366998015307 -1.05811412687784 1.51378719452625 -14.7476353998756 6.82862845691956 2.95831967753449 16.800826268888 -5.073239074173 2.2209475331298 -8.03155875170749 -15.2870390743618 -13.6895212729977 22.0363901836723 12.1860902832841 -193.996821151706
0.0209500001445413 0.0600499968752265 0.00564999974519014 16 -0.0862414356072743 -0.319713684531162 0.0964375218880984 0.344897986251025 -22.203385191585 -7.41938000339814 1.47850041750274 -6.02703684862969 9.9265206737899 4.47296160667289 24.5930690619605 1.49487287648708 2.55199723245071 -2.9780887301858 -23.1145686444577 1.39234315476846 23.3471821761179 111.074703998983 -339.497134938607
0.0237500001862645 0.0600499968752265 0.00564999974519014 16 -0.14922277768453 -0.316354545676926 0.178637263268853 0.392758077929056 -19.2380881391506 -13.7277435298837 2.1088596769604 11.3923995661226 12.6252501159222 5.02627628793154 35.6585357340605 10.4757963764053 2.28847182985683 5.44952008847373 -33.5496760571001 25.1201430960063 42.264637960059 13.0806362313582 -229.480123679745
0.0265500002279878 0.0600499968752265 0.00564999974519014 16 -0.202688558697701 -0.252701640126616 0.313328256651888 0.450683222636636 -15.4269202742873 -18.288548467609 2.68361647236255 36.9152934661176 12.6366128829314 3.72157181800825 39.1982756014136 19.8894348581636 1.16254815851511 16.1678630401553 -36.514659129051 55.2038419337266 68.1335768240585 -296.970249156846 297.726149213162
0.029350000269711 0.0600499968752265 0.00564999974519014 16 -0.241502251227697 -0.117854131612694 0.411771743448529 0.491700012597995 -11.219365806455 -20.6555625627674 2.64724911281592 55.8780041934769 8.80814822242297 0.742466796345567 33.9782044707174 27.3546798645545 -0.94783011437108 26.612213068209 -31.3309553579015 76.5335667562443 86.8747689980184 -1034.35925977412 947.396485990268
0.0321500003114343 0.0600499968752265 0.00564999974519014 16 -0.268540450731913 0.0426319814558762 0.510520001983192 0.578413461070083 -7.39867758984683 -21.4245340536167 2.10669609934521 47.1745938821979 2.81280102492436 -2.55533339216838 20.851818795309 31.6989799252181 -3.34721519038117 34.2543133173865 -18.7451226959638 68.5991279358146 78.934010155868 -1098.45117495575 1042.30561746646
0.0349500003531575 0.0600499968752265 0.00564999974519014 16 -0.285105311473211 0.128708150968887 0.529755670952921 0.615216951703093 -5.2952721950864 -21.6842630475345 1.58873043518612 33.2148541720453 -1.20011313765384 -4.38533516131831 7.8062865330449 33.1314097564124 -5.05046678617173 37.5167449177307 -6.21755609785877 54.8991172195798 66.7838095988935 -863.815531151741 892.289539715305
-0.0350500006899238 0.0572499968335032 0.00564999974519014 16 0.0417009902000427 -0.324038375666811 0.00129182467896802 0.326713192723298 -0.675731603453304 7.58555651470544 2.06761438689068 -6.08083862210396 1.02927144515157 0.741663569157986 -3.82241360567312 -10.8072427321894 -2.57028926119037 -11.5489063013474 5.8900279925638 -13.6663951368094 18.8371978421923 -56.5717220786953 60.4409497034809
-0.0322500006482005 0.0572499968335032 0.00564999974519014 16 0.039398896296819 -0.341461067131265 -0.0107509134663269 0.343894628536402 -1.09092001729826 5.72825670871939 2.62234280679253 -4.32089349556634 1.17324326148424 0.303020420520835 -4.21806789887578 -8.07745924497781 -3.40249072174063 -8.38047966549864 6.84041070566832 -10.0491502042857 14.7651304726492 -28.3908499756601 36.7000236303325
-0.0294500006064773 0.0572499968335032 0.00564999974519014 16 0.0329849859078726 -0.349737088544643 -0.0224580746438975 0.352006257779229 -5.67294815232456 0.216247560929777 3.88115880815449 5.3478931951863 0.864733112910784 -0.546472582359242 -0.107050322563006 -1.17300138886075 -5.30691334698094 -0.626528806501512 3.98820913071749 5.13164563425652 6.52932901080185 6.63367312379237 19.2291917973559
-0.026650000564754 0.0572499968335032 0.00564999974519014 16 0.00107422510782884 -0.314183474928905 -0.0090858065818126 0.314316658418268 -13.6085696796718 -9.64229224398391 5.44962069502757 30.3124180494451 -1.07203980821886 -1.1112309541162 14.6588742754758 9.94650138627693 -7.70926703066861 11.0577323403931 -9.20925358044819 39.954710293429 42.4671952294076 10.8059826720352 351.214416207358
-0.0238500005230308 0.0572499968335032 0.00564999974519014 16 -0.0544297202428181 -0.181782965059198 0.0653901810392078 0.200707539987329 -21.087666960812 -22.1801957210491 6.82898042747765 57.2737540047266 -5.75222761761045 -0.527878376875598 30.7678631162184 22.4470753624543 -9.47230168217811 22.9749537393299 -23.9388826887408 79.4539497257757 86.1037091578274 -470.417960279066 1447.61590304365
-0.0210500004813075 0.0572499968335032 0.00564999974519014 16 -0.129053321282069 0.00738159075888689 0.169651421459081 0.213285846738951 -19.1431823926264 -32.2922152932651 7.55949345284322 71.3060374928583 -12.7994070700072 1.06817057239077 32.1425039182131 31.0616229165068 -10.0752337752559 29.993452344116 -24.5830104653699 103.598252786123 110.618848156165 -1649.21486170214 2593.32019525286
-0.0182500004395843 0.0572499968335032 0.00564999974519014 16 -0.169151873588562 0.219161356854408 0.249454138058548 0.37265456346504 -4.73667869884561 -34.4606675808339 7.15686991967315 62.5627903519618 -19.4696074008758 2.40384355164636 10.0109786468952 31.2484236945242 -9.12163053673817 28.8445801428778 -2.85410872722207 97.0234579327958 101.260590209038 -1790.17751436531 2322.21400062557
-0.015450000397861 0.0572499968335032 0.00564999974519014 16 -0.154700746138891 0.357583859075482 0.224703263839086 0.449766710536897 15.3316700941288 -26.8308072713772 5.6365911674156 34.9800482207121 -22.5964282072448 2.28044189372909 -24.6893102962116 21.9851158168958 -6.91780570133193 19.7046739231667 30.3259014636272 61.8108554920893 71.6136602238979 -388.52831076793 731.38590386585
-0.0126500003561378 0.0572499968335032 0.00564999974519014 16 -0.0739897143840791 0.412109436101164 0.10326114864011 0.43124416515094 27.7834977185063 -12.5752030520596 3.64417883326059 4.41081664123452 -20.7570740126817 0.677848798305145 -49.1086232171221 6.97984091108438 -4.62867793131505 6.30199211277924 52.7528020503826 16.9860196932941 55.7772184119768 379.227975320171 -379.530927444035
-0.0098500003144145 0.0572499968335032 0.00564999974519014 16 0.01457892258962 0.379339100322686 -0.063980141064773 0.384972929526437 26.1971543941184 2.08314697864552 2.11664089173826 -17.2165008367828 -15.3462314050244 -1.25775551251946 -49.4621050851199 -7.73837981075279 -3.43830592588667 -6.48062429823333 51.5787459768582 -19.2996478154284 55.4512572773574 203.919719919546 -308.511360249366
-0.00705000027269125 0.0572499968335032 0.00564999974519014 16 0.0852167701721191 0.314872219107347 -0.188789776191891 0.376892546860159 17.7471017037906 12.5868964897795 1.60551579671542 -24.3825332871405 -9.16190050325034 -2.43388724211073 -30.7843874209555 -17.596146633488 -3.73434396531909 -15.1622593913773 32.3899032176709 -36.96942977692 51.4367444375333 -37.3948358160334 118.840931813355
-0.004250000230968 0.0572499968335032 0.00564999974519014 16 0.121644710699717 0.24409766729145 -0.246562479049899 0.367660390705304 9.87018019863979 18.0045432196992 1.83376262691118 -24.7451381609905 -4.37646789853301 -2.56811805457787 -8.5720022839297 -21.9251644308469 -4.8519962228956 -19.3570463762691 10.4057649108409 -42.7496813806897 48.0677693048388 -361.066126716263 335.085518176726
-0.00145000018924474 0.0572499968335032 0.00564999974519014 16 0.1440376440684 0.178649258427322 -0.241249410963889 0.33296197791314 7.33732683737798 20.1208079931256 2.38687578757292 -24.5537656152056 -1.90947611534074 -2.00047696658845 4.44017346498645 -23.5276329448607 -6.03256118253276 -21.5271559782723 -2.05329767741353 -44.6745736083312 49.6331744194459 -403.634281056945 389.622681214255
0.0013499998524785 0.0572499968335032 0.00564999974519014 16 0.165381006002426 0.108830440867265 -0.223864703766158 0.298848368906453 3.55967043783474 20.8803504195804 3.00842734626576 -26.9425799934391 -1.24213687728266 -1.34786018074069 9.34919921978139 -25.1973764579369 -6.87512482109602 -23.8495162771962 -6.34077187351562 -47.8229304130195 53.814844493845 -479.845959141959 480.126654057639
0.00414999989420176 0.0572499968335032 0.00564999974519014 16 0.166444545586904 0.0297444316112281 -0.191101582137247 0.255163345061286 -2.6206882250443 20.6287820366135 3.512427992224 -28.7335319280132 -1.15428027387883 -0.991674449553471 12.4423628361115 -27.0066954038702 -7.04298378866607 -26.0150209543168 -8.92993484388751 -49.3623139646267 56.5080798781201 -520.670460225791 551.865064633999
0.006949999935925 0.0572499968335032 0.00564999974519014 16 0.151950988769531 -0.049948580924732 -0.154790164909888 0.222584722919753 -10.1134418466387 19.1806255864294 3.75839723438993 -28.3981520991809 -0.425395744912978 -0.864444187173609 17.3259402471921 -27.1063185637849 -6.12479318946641 -26.2418743766113 -13.5675430128022 -47.5787776856103 56.0040559268596 -413.855085987431 524.995073168085
0.00974999997764826 0.0572499968335032 0.00564999974519014 16 0.109310510158539 -0.126737518220616 -0.0909025901319304 0.190458570425525 -13.8753373828326 16.7636560113869 3.50941802866559 -26.3791988224946 1.2348004257841 -0.584738895819258 20.4028158209566 -24.6964174295983 -3.88766352031022 -24.1116785337791 -16.893397792291 -43.1428548338815 52.2308898440593 -209.504500845186 388.177731277029
0.0125500000193715 0.0572499968335032 0.00564999974519014 16 0.0723937857151031 -0.195384721920903 -0.0334158446655298 0.211027648532091 -14.0840818751196 13.7129531578611 2.84726319228431 -23.72194653244 3.1527312838622 0.0954023682217563 17.6761464468254 -20.8902496411156 -1.0951741754239 -20.9856520093373 -14.828883254541 -37.4348996903011 45.4055622546039 -125.327981637992 244.530687079551
0.0153500000610948 0.0572499968335032 0.00564999974519014 16 0.0274785808722178 -0.258450322887705 0.0160278401434577 0.260400717101882 -13.7163655798986 9.24617454882439 2.11191592872837 -20.6523930554009 4.81878498186594 1.16551753050512 12.4258957533106 -16.5626706627573 1.16002484937953 -17.7281881932624 -10.3139798245823 -29.8985676042253 36.2572914214789 -60.2081182285979 107.599635825183
0.018150000102818 0.0572499968335032 0.00564999974519014 16 -0.0103999797503154 -0.310491979484116 0.0443596396741365 0.31381715462159 -14.7738329165626 1.94065728186109 1.69761170365282 -16.3369647598 6.69397189588013 2.51647365746941 11.7942651681349 -10.1093536884658 2.52039324029758 -12.6258273459352 -10.0966534644821 -18.2776220416611 24.4013400215853 25.1386499255149 -82.1377601467022
0.0209500001445413 0.0572499968335032 0.00564999974519014 16 -0.0645867908000946 -0.348623150219986 0.0931128624365192 0.366578176609416 -15.2965957798689 -8.30857705598302 1.83623307974502 -8.56222857109155 9.78586223930969 3.76319699304983 16.2215598014865 1.07934602254126 3.08112285477111 -2.68385097050857 -14.3853267217415 -0.253651515108526 14.6357446006094 140.098529651593 -271.657918363467
0.0237500001862645 0.0572499968335032 0.00564999974519014 16 -0.107965489625931 -0.35514933838509 0.152305842710969 0.401228948643331 -13.0855953410995 -19.2650714235884 2.39946389365853 9.19331755640275 13.6205594907806 4.13464141484334 25.0586981287166 17.0570517217197 2.96903798695043 12.9224103068764 -22.659234235058 28.4583889799911 38.6045267759491 47.527462080469 -130.187115435531
0.0265500002279878 0.0572499968335032 0.00564999974519014 16 -0.149926290114721 -0.292494182613057 0.25555409725171 0.41633956808377 -11.0631592164959 -28.2610569668557 2.87306447267932 36.6518550752855 16.0792923023294 2.7744853752535 29.292641082169 34.4246443523888 1.69747261699755 31.6501589771352 -26.4195766094897 64.9129120421413 76.8987174229414 -644.239050182255 686.776823242622
0.029350000269711 0.0572499968335032 0.00564999974519014 16 -0.181107670863469 -0.145346658175501 0.334798281877496 0.407450032564117 -8.91792998029372 -34.1372491524222 2.86993361014795 58.126671714724 15.3702180587506 -0.20022959656599 27.491635249864 48.3284330903564 -0.847498735784245 48.5286626869224 -24.621701639716 92.2639208671462 107.11624707576 -1729.11914786735 1772.52345496623
0.0321500003114343 0.0572499968335032 0.00564999974519014 16 -0.208586304982503 0.0355965130551097 0.418137853585455 0.468630582622377 -6.46590647069422 -37.115132267453 2.4968801049005 50.0019632554189 12.2926302301154 -3.45061048260154 17.9637170142981 56.2550040719995 -3.71284554573207 59.7056145546011 -15.4668369093976 87.117095522872 106.739738549735 -1886.86645544753 1903.97361628064
0.0349500003531575 0.0572499968335032 0.00564999974519014 16 -0.222375078996023 0.137119148635926 0.436134471215967 0.508395135366144 -4.29281416855936 -38.2954797308087 2.15581544670408 35.4173695549459 10.0687271167869 -5.24148711323302 7.00192536577846 58.9337496317012 -5.64011689840136 64.1752367449342 -4.84610991907439 73.7128492857546 97.854636795813 -1563.8083318804 1574.33078962955
-0.0350500006899238 0.05444999679178 0.00564999974519014 16 0.00809026360511789 -0.323290838423806 0.0322422687817986 0.324995357613252 1.34263539253103 12.0420531561176 1.37286529501031 -5.93688686893519 -3.85382966948971 0.44148805118306 -6.51321221459223 -10.3678649828412 -1.02664006467875 -10.8093530340243 7.88607750960254 -17.9789400250528 22.4114840188256 -67.115908936973 82.4151633161034
-0.0322500006482005 0.05444999679178 0.00564999974519014 16 0.0106709758440653 -0.341306436133831 0.0130557834908056 0.341722704183378 3.64994302511536 8.48570092102857 1.85989789731597 -4.27935788752141 -4.08732101159023 0.16634178913786 -9.17061159081074 -7.24817190847818 -1.8322676035738 -7.41451369761604 11.0305094881267 -12.76505880855 18.4280731311097 -39.9848124255524 40.4583309631098
-0.0294500006064773 0.05444999679178 0.00564999974519014 16 0.0268384949366252 -0.349451002573866 -0.0221167353432005 0.351177245835468 4.12888041206782 -0.54498153798782 3.10745954850129 6.07992096984605 -4.55237424572146 -0.357760742549302 -9.96160769792303 0.654471302699748 -3.49772119684308 1.01223204524905 13.0690672464243 6.62490250783387 14.6872211681888 -17.2303026842659 17.1879362866984
-0.026650000564754 0.05444999679178 0.00564999974519014 16 0.0347130886713665 -0.307050841101833 -0.0504859206235657 0.313103889671876 0.613988690271905 -14.7108286674102 4.93029309629249 32.4578033189266 -5.49301436873299 -0.661822356917429 0.399086724203907 13.6493134541939 -5.74123459479006 14.3111358111114 4.53120637208859 47.1686319863368 49.4996998258879 -455.195859045855 509.18597214077
-0.0238500005230308 0.05444999679178 0.00564999974519014 16 0.0359729238351185 -0.161212643658121 -0.0274155239997587 0.167437088724897 -6.39141747694657 -31.0917330441543 6.8889789232409 61.8337663551951 -7.51822417929136 -0.0119376230816292 17.1513145888733 29.0250755566336 -7.64793645145964 29.0370131797152 -10.2623356656324 92.9254993993494 97.8959248709136 -1899.7456558805 1959.14256719823
-0.0210500004813075 0.05444999679178 0.00564999974519014 16 0.0076221617062886 0.0532431746283934 0.043342423971432 0.0690760357092513 -11.23541901442 -43.5837263340101 8.23572613444339 77.1421324585121 -10.8671520430169 1.55023222806645 25.3756219560879 40.7939584920514 -8.61658206103554 39.243726263985 -17.1398958216445 120.725858792522 128.095975975248 -3288.96760336287 3402.46043178044
-0.0182500004395843 0.05444999679178 0.00564999974519014 16 -0.0216925084590911 0.28706388346424 0.118794843787327 0.311429691942297 -8.19755811742227 -45.8621580060711 8.17269338977725 66.7656351668894 -14.2358914927297 2.85485776394515 15.0280156345356 42.3570026885188 -8.17561032019715 39.5021449245736 -6.85532224475839 112.62779317296 119.550971103261 -2786.463629123 3118.38021739432
-0.015450000397861 0.05444999679178 0.00564999974519014 16 -0.0395143520832062 0.438049016142419 0.134205004672889 0.459847048314053 1.12061484687887 -35.8200836497012 6.57726532425018 35.5750515805963 -15.9069188611724 2.75318409218705 -8.76181036228811 30.6757736445832 -6.49103741870629 27.9225895523962 15.3390756865383 71.3951352302975 78.1807110787654 -917.015599544552 1325.62694611635
-0.0126500003561378 0.05444999679178 0.00564999974519014 16 -0.022831416130066 0.485945840431687 0.0738815308383346 0.492060071530274 9.29721358850728 -17.3783484917699 4.14205689374663 0.938857982829254 -14.8693177572143 1.12161456467503 -29.0457649700382 9.69069036938726 -4.55782842504972 8.56907580471223 33.1878218637848 18.3172064745992 38.8636158024741 -8.51054696773063 12.9092644413826
-0.0098500003144145 0.05444999679178 0.00564999974519014 16 0.00355455398559568 0.432913454251053 -0.0279595208369816 0.433829953473765 10.7511959373181 1.89554406432422 2.08423397103313 -22.3539426746116 -11.6707598686376 -0.943897260050612 -32.9175195745121 -12.1985326664672 -3.38410095556053 -11.2546354064166 35.0017535455453 -24.2494867389359 44.0434691696315 6.78351126772122 -22.8961945765011
-0.00705000027269125 0.05444999679178 0.00564999974519014 16 0.0324929682413737 0.347474650562266 -0.113088893399496 0.366856271009269 8.24619310017848 16.3386616136025 1.10585605408253 -29.2379975517225 -7.86218466800086 -2.25631963021038 -21.9094365349849 -27.7603022403104 -3.25682169416408 -25.5039826101 23.0152925890674 -45.576659165325 57.0735374986418 -352.675328888259 373.218576451042
-0.004250000230968 0.05444999679178 0.00564999974519014 16 0.0509421046574909 0.259310792473067 -0.155151638625151 0.306446106335216 5.50054640014624 24.7915572857885 0.981251756629559 -27.8249885347078 -4.71230263441888 -2.4733543385947 -5.46089802412306 -35.4173395887287 -3.54761642561213 -32.943985250134 6.44214978075262 -52.6165458204962 62.4124054338485 -578.455148125086 578.867056657463
-0.00145000018924474 0.05444999679178 0.00564999974519014 16 0.068361603418986 0.187405337558788 -0.148480486844201 0.24867755093902 5.11338678330104 29.2688663649326 1.28259001428571 -25.6378548304146 -3.01535482868487 -1.90597017388849 6.11384460905396 -38.5996464785891 -3.77269263171813 -36.6936763047006 -4.83125459476825 -54.9067211953472 66.2156698534207 -655.886467577556 645.645710735399
0.0013499998524785 0.05444999679178 0.00564999974519014 16 0.0848194106419882 0.115378977672954 -0.123723692411052 0.189246381667748 2.59624796170005 31.6966864686894 1.69667639857943 -27.0637931655997 -2.47739167937333 -1.22612204969364 11.5062234464576 -40.7605983362566 -3.94700196104368 -39.5344762865629 -9.80954704787813 -58.7604796342891 71.4982237219152 -773.399393039894 781.431711408965
0.00414999989420176 0.05444999679178 0.00564999974519014 16 0.0856926023960114 0.0362722439753513 -0.0834744044549491 0.125007495725323 -1.7143266108768 32.0053157136234 2.04671581019885 -29.0883627796809 -2.08920425894879 -0.851817205800795 13.2786518486275 -41.9445926295155 -4.02054989416829 -41.0927754237147 -11.2319360384287 -61.0936784933043 74.4795954006091 -845.824210307412 886.949346080078
0.006949999935925 0.05444999679178 0.00564999974519014 16 0.0748652323087056 -0.0476912314002402 -0.0443360191474979 0.0992216667616252 -7.27446635486318 29.7081350578645 2.20315505438883 -30.0032157216744 -0.858194313753442 -0.728305614785973 14.6556557897654 -40.0109740246902 -3.61038858893858 -39.2826684099042 -12.4525007353766 -59.7113507795389 72.5509353756668 -801.97550817499 865.515656602922
0.00974999997764826 0.05444999679178 0.00564999974519014 16 0.0410632912317912 -0.132610912012557 0.00784207519570676 0.139044403033578 -9.85537621452487 25.2661679728238 2.04520465508153 -28.4204146463199 1.12788896186823 -0.490711095799441 15.0576198349655 -34.4053947154589 -2.24619120368124 -33.9146836196595 -13.012415179884 -53.6865826191436 64.8211220757355 -645.69286035879 678.8837822378
0.0125500000193715 0.05444999679178 0.00564999974519014 16 0.0128396713733674 -0.207117258774427 0.0523191661653497 0.214008670832391 -9.34746962835612 19.5602974112784 1.77032272576096 -25.161389644012 2.69061703918745 0.0638589425449395 11.8152264666362 -27.0054465377615 -0.298736831939947 -27.0693054803064 -10.0449037408753 -44.7216870552904 53.2322898570119 -471.289934338954 449.81022605073
0.0153500000610948 0.05444999679178 0.00564999974519014 16 -0.0181363586584726 -0.273965413455541 0.084723574037004 0.287339623569145 -6.53821389899664 12.1123120926496 1.63212503934573 -21.2964698727767 3.10808327013158 0.839312830864645 6.150108610238 -19.196318392858 1.55738539554944 -20.0356312237227 -4.51798357089227 -33.4087819654263 39.2171570424637 -261.844531031663 238.360111063571
0.018150000102818 0.05444999679178 0.00564999974519014 16 -0.0279741112391154 -0.3274650981642 0.0947262436504631 0.34203655163072 -3.99375761865465 1.45960238080295 1.73280917719078 -17.6010657818049 3.14107419549807 1.71939374901084 1.53140054527621 -9.11098360121824 3.04717334613674 -10.8303773502291 0.201408631914572 -19.0606681626078 21.9236563964686 -26.6674118611657 23.5593376534918
0.0209500001445413 0.05444999679178 0.00564999974519014 16 -0.0407529989878337 -0.37483983539821 0.0969675296723532 0.389317879037963 -1.82206599608533 -12.5457683630445 2.03187687044384 -11.6512764668879 4.40233276986971 2.41875818606385 -0.3013212031196 6.48606231523947 3.92814530114824 4.06730412917562 2.33319807356344 0.8944918961566 4.7735617605703 141.861698556218 -159.135862464762
0.0237500001862645 0.05444999679178 0.00564999974519014 16 -0.0357243569691976 -0.397444345814292 0.0913008967544496 0.409358145697359 -0.650024008194715 -27.4993751121275 2.39763189791904 5.61712475149874 7.23287621909914 2.40884707045671 4.12245041526793 27.9674853341158 3.91857774116842 25.558638263659 -1.7248185173489 33.1164998636263 41.867905990483 -66.0719062122908 98.3077818210545