TITLE="DynamicStudio Exported Data"
VARIABLES= "X (m)[m]" "Y (m)[m]" "Z (m)[m]" "Status[-]" "U[m/s]" "V[m/s]" "W[m/s]" "Length[m/s]" "dU/dX[1/s]" "dU/dY[1/s]" "dU/dZ[1/s]" "dV/dX[1/s]" "dV/dY[1/s]" "dV/dZ[1/s]" "dW/dX[1/s]" "dW/dY[1/s]" "dW/dZ[1/s]" "Vorticity X[1/s]" "Vorticity Y[1/s]" "Vorticity Z[1/s]" "Vorticity Magnitude[1/s]" "Lambda-2[1/s²]" "Q-Criterion[1/s²]"
ZONE T="DynamicStudio Data" I=26 J=26 F=POINT
-0.0350500006899238 0.0600499968752265 0.00564999974519014 16 -0.120404969255129 0.300725271284658 0.278027409829665 0.426886736766501 10.8556001233906 -7.16809939023276 -2.28600205315056 -2.96191514769424 -4.52053756700831 -2.34065949043228 -8.58711125182435 16.572915402438 4.10425884304683 18.9135748928703 6.30110919867379 4.20618424253852 20.3744761464928 -6.38160269283199 -25.1423160474836
-0.0322500006482005 0.0600499968752265 0.00564999974519014 16 -0.0905004439751307 0.293872212882464 0.255273796400676 0.399644740979968 19.4510601755606 -6.04883949054685 -2.62670863112699 -7.26194473641639 -3.83957774037261 -2.21875560313093 -16.0511595432988 14.6840328334718 5.43609205221388 16.9027884366027 13.4244509121718 -1.21310524586954 21.6192452126206 2.21210861794539 -43.3261793734881
-0.0294500006064773 0.0600499968752265 0.00564999974519014 16 -0.00887889941533415 0.26219869034423 0.185990958365922 0.321589217274043 26.028974478879 -3.42086501762166 -2.60426402941852 -13.6821395551399 -2.71531838458234 -1.96324489011174 -28.3411323577048 9.87466703538062 6.50218291507653 11.8379119254924 25.7368683282863 -10.2612745375182 30.1299901300611 0.27441327133895 -20.3134511138088
-0.026650000564754 0.0600499968752265 0.00564999974519014 16 0.0616843946774801 0.220319019963111 0.0858787525072694 0.244377976168962 22.7258299318585 0.181653300579522 -1.90571232682656 -20.3586602904426 -1.57914719483374 -1.56227431950209 -34.3410761287005 3.33958078036062 5.3178337376021 4.90185509986271 32.435363801874 -20.5403135910221 38.7038175222741 -7.85604866609595 20.0384593433972
-0.0238500005230308 0.0600499968752265 0.00564999974519014 16 0.127382992108663 0.150905064398345 -0.02326083718411 0.198846251375604 15.6027656029675 3.97819151702708 -0.659993730466581 -26.3580350635933 -0.903150605265748 -1.38999040028189 -33.6719018746383 -2.60456410381049 1.70359030090061 -1.2145737035286 33.0119081441717 -30.3362265806204 44.8502832962209 -9.46521410455131 89.9642226030448
-0.0210500004813075 0.0600499968752265 0.00564999974519014 16 0.158672101100286 0.0732295090415331 -0.120351659722316 0.212188403688702 7.91988395691722 7.16519492925931 0.62921346661582 -29.5596745764733 -0.618080153271336 -1.64690200630013 -23.9046404280253 -5.43413069266229 -2.77296228623881 -3.78722868636216 24.5338538946411 -36.7248695057326 44.3279723003375 -138.629357796424 192.749721658574
-0.0182500004395843 0.0600499968752265 0.00564999974519014 16 0.179006219307582 -0.0149092198361177 -0.16615733576046 0.244691176003406 3.04936881920563 9.08997543211292 1.5818241334021 -30.1947244906896 -0.346594912343753 -2.15620983186739 -10.3002701429674 -4.15199681620274 -5.77911487306483 -1.99578698433534 11.8820942763695 -39.2846999228026 41.090813792185 -270.682671026063 265.133406733242
-0.015450000397861 0.0600499968752265 0.00564999974519014 16 0.179612227280935 -0.0963241762687297 -0.175627556995799 0.269042632121714 -0.677099340809439 9.66856662737003 2.08480871827287 -26.9179061070421 0.271027401223576 -2.36668340827595 2.41221579069547 -0.476920124311096 -5.8846481230529 1.88976328396485 -0.327407072422602 -36.5864727344122 36.6367082010158 -256.036119927809 256.305919211549
-0.0126500003561378 0.0600499968752265 0.00564999974519014 16 0.175785088539123 -0.163540413686981 -0.142397077231435 0.279146541919601 -2.37920801083953 9.30049312116344 1.99002009172021 -22.4088275129325 1.47780173769213 -1.92426834146874 11.5318088351611 2.54243817582183 -3.24048850616805 4.46670651729058 -9.54178874344086 -31.709320634096 33.4137429003691 -200.765014433871 189.761947088168
-0.0098500003144145 0.0600499968752265 0.00564999974519014 16 0.164195306301117 -0.217609161762521 -0.100763692534917 0.290632358190852 -3.62442329880609 8.07767054890516 1.24381154341353 -16.9933737611997 3.23261607875547 -1.0433976853383 16.2877462718986 3.01390920248768 0.702399986733606 4.05730688782598 -15.0439347284851 -25.0710443101049 29.51845141765 -116.975072621002 108.161119395796
-0.00705000027269125 0.0600499968752265 0.00564999974519014 16 0.150203245480855 -0.252954361949038 -0.0453794019516014 0.297667959820187 -7.63861525597252 5.14161938619945 -0.073024795026879 -11.5110909966299 5.56658830564502 -0.0721424562360498 20.6689351628915 2.22688241725119 4.35204999037247 2.29902487348724 -20.7419599579184 -16.6527103828293 26.6988235950424 -5.50171056229458 9.31705492115888
-0.004250000230968 0.0600499968752265 0.00564999974519014 16 0.110624737739563 -0.275409149262753 0.0197004915991177 0.297449393118943 -16.4221609392661 -0.535216079884427 -1.51162401900587 -1.29860352023207 8.00165826177106 1.0266116900447 25.5943591104452 3.33864717615309 6.71932341403024 2.31203548610838 -27.1059831294511 -0.763387440347644 27.2151169368642 76.2863836911315 -153.418080277594
-0.00145000018924474 0.0600499968752265 0.00564999974519014 16 0.0422354547182719 -0.253751300786777 0.106277642956702 0.278331625365629 -28.9165906596093 -8.1812883735126 -2.46198728323333 14.7233289137643 9.45897007736064 2.35324141256805 32.2462012998488 7.76540353994267 7.62465047210994 5.41216212737462 -34.7081885830821 22.9046172872769 41.9353233764616 27.2183990788652 -240.307053748212
0.0013499998524785 0.0600499968752265 0.00564999974519014 16 -0.0674814152717591 -0.189270128460873 0.21213368571829 0.292194496099946 -39.2670342593069 -15.4070623051919 -2.73324023584663 36.6738100122764 8.78702334906825 3.56474417306792 38.4939481180681 14.3073990903847 7.72853697535778 10.7426549173168 -41.2271883539148 52.0808723174683 67.2867219857689 41.7199487094389 38.6404279073245
0.00414999989420176 0.0600499968752265 0.00564999974519014 16 -0.18941136598587 -0.050228396578265 0.335161627356041 0.388243317829691 -37.7108031615897 -19.6279951536079 -2.26672002181094 54.4234081679161 5.50117160556228 3.80402957007696 35.5332254493634 20.1958847782533 7.4472721211276 16.3918552081763 -37.7999454711744 74.051403321524 84.7416021129917 74.0857584571762 624.613031743453
0.006949999935925 0.0600499968752265 0.00564999974519014 16 -0.28069409886996 0.1060784146407 0.418773155314848 0.515182261734094 -22.1472124269854 -19.8510400949453 -1.33935655762765 59.4150677008816 0.445134564011933 2.4229077270579 19.7682273143726 22.9112756653247 6.79804934102549 20.4883679382668 -21.1075838720003 79.2661077958268 84.5483244232963 -755.662546399512 993.02540335096
0.00974999997764826 0.0600499968752265 0.00564999974519014 16 -0.308427230517069 0.268241675042858 0.445419655103081 0.604549106282009 2.33800903657413 -16.8484131822865 -0.486016762961694 48.2086693195944 -4.5576722862066 0.0937960112592191 -8.40918262851247 21.2859293960752 5.80522201394516 21.192133384816 7.92316586555077 65.0570825018809 68.8789304387735 -773.652362701675 782.614523719978
0.0125500000193715 0.0600499968752265 0.00564999974519014 16 -0.257900222539902 0.363242285682204 0.361647316426194 0.57379984696062 24.1396080909594 -11.6513979259847 -0.0983462077767373 25.6993822384969 -7.52170393873715 -1.92190043098552 -36.8698059791888 15.1872481870415 4.54179602578697 17.109148618027 36.7714597714121 37.3507801644816 55.1356871640296 3.07768949325955 218.900247927484
0.0153500000610948 0.0600499968752265 0.00564999974519014 16 -0.161849817832311 0.406361532555117 0.22104071533191 0.490085764440611 34.2886017680368 -5.61824125691319 -0.340911031365992 2.88024424595777 -7.79971592967629 -2.63697802898851 -51.0710578213657 6.50329170373972 3.42722450152734 9.14026973272822 50.7301467899998 8.49848550287096 52.2428615215941 56.6496358647756 -160.737737456436
0.018150000102818 0.0600499968752265 0.00564999974519014 16 -0.0556505920489629 0.381066854810342 0.0570531455200398 0.389312211013445 34.8620931868093 0.221097324119409 -0.599793477714297 -14.5040688280005 -6.31352851586246 -2.11923318413005 -49.9828009233112 -2.0594707565962 2.21032620042257 0.0597624275338555 49.3830074455969 -14.7251661521199 51.5316942679664 38.6986496779671 -188.138224935027
0.0209500001445413 0.0600499968752265 0.00564999974519014 16 0.0438104156653087 0.330384698895505 -0.0763720025735286 0.341915317823188 29.2621736149189 5.1265389441564 -0.282728111977644 -23.5757249345113 -4.83663159911982 -1.08116940972008 -35.2274389118997 -7.78515443222126 0.616149047359914 -6.70398502250118 34.944710799922 -28.7022638786677 45.7153823109113 1.73335989834326 -23.9955652225052
0.0237500001862645 0.0600499968752265 0.00564999974519014 16 0.117177678743998 0.252747130667946 -0.149631883113955 0.316230012650507 21.8681764639649 8.5082726733975 0.438389861484703 -27.111982780761 -4.49872058594015 -0.0263650256940719 -19.7575295979812 -8.94290541092736 -0.982060135071079 -8.91654038523329 20.1959194594659 -35.6202554541585 41.9068306350437 9.14262144025039 123.665197126877
0.0265500002279878 0.0600499968752265 0.00564999974519014 16 0.172602669596672 0.179826676848024 -0.187421942308417 0.311859423004599 13.3842142856928 10.4674991020483 0.770818300530642 -26.4731364427694 -4.85575110582593 0.967749903493113 -6.53043135889348 -5.99962546000817 -1.8163726449826 -6.96737536350128 7.30124965942413 -36.9406355448177 38.2944267550804 -107.117018444151 207.466164362788
0.029350000269711 0.0600499968752265 0.00564999974519014 16 0.194317493836085 0.105680526938522 -0.177398295251575 0.283545088730004 4.94240263513517 11.410958859445 0.0743295099331322 -22.5665415392439 -5.02763218222606 2.01985113661191 0.956932255692637 -0.982163011498229 -1.29273433756694 -3.00201414811014 -0.882602745759504 -33.9775003986889 34.1212779639799 -233.464199297039 234.680168489951
0.0321500003114343 0.0600499968752265 0.00564999974519014 16 0.198894909222921 0.0558266504939335 -0.169753501081917 0.267379974848032 0.386665755709009 11.8302556150238 -1.21863988733142 -13.9542077896517 -4.64095831988194 3.00405305526049 2.29214222552827 3.34764034827707 -0.0162384933950089 0.343587293016578 -3.51078211285969 -25.7844634046755 26.024645940703 -132.770823194717 156.093235429779
0.0349500003531575 0.0600499968752265 0.00564999974519014 16 0.194466627041499 0.0305880632111803 -0.1556748855828 0.250973242886819 -1.29553568072608 12.00457497021 -2.0609801732102 -9.23739504875077 -4.26808301302688 3.51949191650942 3.64185198046417 5.3820988135919 0.976481615752019 1.86260689708248 -5.70283215367437 -21.2419700189607 22.0728994314854 -75.9943102592369 99.5512153095593
-0.0350500006899238 0.0572499968335032 0.00564999974519014 16 -0.100757806301117 0.315039436766432 0.232775969605039 0.404458445670615 9.55799548347938 -11.9144859057067 -2.78637848545118 -3.56781636448462 -4.63521508587174 -1.97642527264938 -7.22438111323572 21.4979592185206 5.9261474459173 23.47438449117 4.43800262778453 8.3466695412221 25.3063131845369 2.67092004423987 -35.2796903591752
-0.0322500006482005 0.0572499968335032 0.00564999974519014 16 -0.0724868897596995 0.304818685123222 0.21222526260186 0.378428780715359 17.1838442850959 -9.58782176850031 -2.8399571441901 -7.83742867350161 -4.08475068540163 -1.86262384378655 -12.9410550831358 18.5632389018168 6.8539624511987 20.4258627456033 10.1010979389457 1.7503930949987 22.8541445795159 16.3317927982524 -57.7306037294851
-0.0294500006064773 0.0572499968335032 0.00564999974519014 16 0.00122333963712062 0.270821769373142 0.158056719199133 0.31357272491443 22.4025509781164 -4.57017386824816 -2.39252532327243 -14.5718064972463 -2.99435292480675 -1.61032234348991 -22.900828123628 11.615952140274 7.21872620426219 13.2262744837639 20.5083028003555 -10.0016326289981 26.3734236631571 10.6193298326665 -29.6597493836991
-0.026650000564754 0.0572499968335032 0.00564999974519014 16 0.0624261204401653 0.224196998923253 0.0759572065140431 0.244807704251357 18.6281017134657 1.95313841150683 -1.38063510330421 -21.2192777417357 -1.62279226132336 -1.25315120776461 -28.3883190281239 2.40125289062719 5.19808278460782 3.65440409839181 27.0076839248197 -23.1724161532426 35.7733214934868 -16.0273172381803 63.42487661418
-0.0238500005230308 0.0572499968335032 0.00564999974519014 16 0.116321374575297 0.153742517833792 -0.014707375074989 0.193348728608586 11.9103331295387 8.47778636451265 -0.0515455017611457 -26.8308352963329 -0.514706773813266 -1.15268527904402 -29.278870831709 -5.96315362482168 0.810181249526539 -4.81046834577766 29.2273253299478 -35.3086216608455 46.0876980900226 -52.4971097631459 222.185449795578
-0.0210500004813075 0.0572499968335032 0.00564999974519014 16 0.138701352675756 0.0751316104787111 -0.103411858229277 0.188618229632348 5.36266557331882 13.6651027507958 1.10405507138433 -29.8775909128876 0.180986311342516 -1.50293778741176 -23.1718887831266 -10.1457474496991 -4.0845099681521 -8.64280966228734 24.2759438545109 -43.5426936636834 50.5963020424939 -432.72604633333 396.942431549942
-0.0182500004395843 0.0572499968335032 0.00564999974519014 16 0.152443914413452 -0.0136794493913961 -0.154507803541298 0.217483184941972 2.07207330504565 16.558023147603 1.81456955018077 -30.4323491705067 0.646032247264742 -2.09952047417852 -12.8175112090844 -8.7886359873006 -7.01811031015239 -6.68911551312208 14.6320807592652 -46.9903723181097 49.6682710015974 -500.351426470669 490.968547927856
-0.015450000397861 0.0572499968335032 0.00564999974519014 16 0.152404795090358 -0.0962886502252271 -0.175578053692977 0.251647329942807 -0.44861857421273 17.1139741634139 2.10345671703944 -27.504985328724 1.26486204424128 -2.38321642749669 -0.99101267704074 -4.09319201741121 -6.754395387479 -1.70997558991451 3.09446939408018 -44.6189594921379 44.7588125793128 -457.865036831313 456.968526360377
-0.0126500003561378 0.0572499968335032 0.00564999974519014 16 0.148790036439896 -0.16773894279555 -0.15301161809902 0.271454200828122 -1.3505107034099 15.9794872581231 1.92189466537479 -23.4514095119258 2.4922651527602 -2.02824560676553 9.70912811099442 0.126264407780674 -3.74408722413778 2.1545100145462 -7.78723344561964 -39.4308967700488 40.2501992321728 -357.371161321647 348.697014177803
-0.0098500003144145 0.0572499968335032 0.00564999974519014 16 0.140927179654439 -0.226130886473693 -0.110448279759536 0.28843451645837 -1.5702100147985 13.304184190772 1.22423164850979 -18.5890161732972 4.54555145016313 -1.21180705090947 16.2365730289875 1.84296136596982 0.443026705308392 3.05476841687929 -15.0123413804777 -31.8932003640692 35.3818913184051 -229.737552602344 223.848367410643
-0.00705000027269125 0.0572499968335032 0.00564999974519014 16 0.133046636581421 -0.268590078809066 -0.0503755869724167 0.303940352212575 -3.45342750171681 8.04346687341058 0.0304950130550626 -13.764361347235 7.61647347056922 -0.272496793599511 20.2470392543713 2.57837277914667 4.22154586543789 2.85086957274618 -20.2165442413162 -21.8078282206456 29.8733575294625 -98.2681446547268 102.069899666848
-0.004250000230968 0.0572499968335032 0.00564999974519014 16 0.111007785002391 -0.298848835274888 0.0137003082921728 0.319094113270042 -9.6262220810207 -1.04538125039588 -1.29456315921473 -3.54278178931632 11.3022321048833 0.862100263608769 22.5729944720055 5.65104507313932 6.64787958237212 4.78894480953055 -23.8675576312202 -2.49740053892045 24.4710299971241 84.6635641424741 -77.0090415027589
-0.00145000018924474 0.0572499968335032 0.00564999974519014 16 0.0657093922297161 -0.281575101800263 0.0849701850048344 0.301367208768278 -21.3274209642156 -12.8817990394922 -2.21141759736214 13.4683862990225 14.3155823835128 2.28888142465072 26.9374421664428 12.5055833903885 7.52377523986025 10.2167019657378 -29.148859763805 26.3501853385147 40.6001144328529 61.6950773176753 -153.626767542101
0.0013499998524785 0.0572499968335032 0.00564999974519014 16 -0.021842190027237 -0.216154333126227 0.172035150834272 0.277120677895029 -33.2377318839286 -24.0916797997043 -2.51023358517111 37.6576575428635 14.8106597104317 3.55596670854478 32.1111008587204 22.0165245996615 7.49919340432733 18.4605578911167 -34.6213344438915 61.7493373425679 73.1601644241817 83.1699662608528 279.09164826373
0.00414999989420176 0.0572499968335032 0.00564999974519014 16 -0.130457634131114 -0.0665526760257004 0.273599042209486 0.310330289993126 -35.4786688467443 -30.9461388737893 -2.1592838279229 57.7341556756432 11.6113485866195 3.71223465569025 30.5934460611072 31.3763226846426 7.13126842327125 27.6640880289523 -32.7527298890301 88.6802945494325 98.4999376803432 -774.900559381283 1154.07340149364
0.006949999935925 0.0572499968335032 0.00564999974519014 16 -0.22395881652832 0.104193631197947 0.352865753688287 0.430729734762974 -23.3863298977323 -31.8648074041087 -1.44348364123763 63.9196692138346 5.48134524645622 2.12460031430278 17.7376737295065 37.4415253620745 6.58218079685627 35.3169250477717 -19.1811573707442 95.7844766179433 103.874289185941 -1751.33194903894 1736.80131978646
0.00974999997764826 0.0572499968335032 0.00564999974519014 16 -0.259112117290497 0.282479988426494 0.380766569697686 0.540293636634321 -1.41648911194223 -27.8720674223984 -0.790075147725595 52.0005616922018 -1.14754635569799 -0.373245104962732 -6.21647583520252 37.8211542433805 5.77513305397088 38.1943993483432 5.42640068747693 79.8726291146002 88.7011547144695 -1444.90231591118 1445.38608004676
0.0125500000193715 0.0572499968335032 0.00564999974519014 16 -0.226097573041916 0.385885838701312 0.319146135820386 0.549438121224533 18.6954583256458 -20.4057579273357 -0.496089007586323 27.2191934098512 -5.47123934881622 -2.37102183030147 -30.0824354523085 30.8739706595348 4.60185966070751 33.2449924898362 29.5863464447221 47.624951337187 65.1821863047399 -227.341087020435 572.276237189693
0.0153500000610948 0.0572499968335032 0.00564999974519014 16 -0.146550054152807 0.429299808004095 0.202658353662506 0.496835638650994 28.3003173838485 -10.9843760008576 -0.655256272951482 2.34285282143634 -6.36098843200277 -2.85708613104434 -41.9093023149654 17.8194967873547 3.38539344707509 20.6765829183991 41.254046042014 13.3272288222939 48.0315773642697 17.091946736221 -56.5594508320976
0.018150000102818 0.0572499968335032 0.00564999974519014 16 -0.0574365083376567 0.39930602871939 0.0653108380881046 0.408668279455896 28.9649240022637 -1.04536862580117 -0.761279425814843 -16.0336573935491 -4.78940424653732 -2.0534812450184 -41.0905378781081 2.6197323891966 1.97608104086062 4.673213634215 40.3292584522932 -14.988288767748 43.2774400024802 22.7228233597682 -133.614835924978
0.0209500001445413 0.0572499968335032 0.00564999974519014 16 0.0278013622760773 0.342702633509568 -0.0508266843658384 0.347564904158091 24.6834869735866 7.79533999339778 -0.39736580043699 -24.2667625753688 -3.06107701237876 -0.817586529897757 -30.2861273982375 -9.30528094446031 0.21982137012433 -8.48769441456256 29.8887615978005 -32.0621025687666 44.6470317877377 12.3550570285982 98.7201344240846
0.0237500001862645 0.0572499968335032 0.00564999974519014 16 0.0920738971233368 0.266382088521495 -0.122395465748074 0.307274583479078 18.9169522039549 14.1980063183264 0.266069999168688 -26.6777591936482 -2.91689996302732 0.317379077637326 -19.5193859164682 -14.0988191467334 -1.56695871340371 -14.4161982243707 19.7854559156369 -40.8757655119746 47.6457683663921 -41.0242763012591 308.188908343199
0.0265500002279878 0.0572499968335032 0.00564999974519014 16 0.142116322914759 0.193642373058634 -0.169297871632759 0.293864232634687 11.7240633487664 18.1563060390459 0.530785571502428 -25.5655876468602 -4.13966217275403 1.27700883630657 -9.89875817336292 -11.9497293307499 -2.63110293573627 -13.2267381670565 10.4295437448653 -43.7218936859061 46.8543058079789 -370.669365759007 416.201659589629
0.029350000269711 0.0572499968335032 0.00564999974519014 16 0.161858170429866 0.121595671529261 -0.177273625642799 0.269090157787494 4.11944167374504 20.3249313515636 -0.15931808196669 -22.0565153745133 -5.49994344126046 2.23639791368359 -3.29740249100885 -5.99955525241565 -2.31557678921759 -8.23595316609924 3.13808440904216 -42.3814467260769 43.2881684171061 -432.022743460156 441.729179486045
0.0321500003114343 0.0572499968335032 0.00564999974519014 16 0.165554434458415 0.0684789818300245 -0.181993807114389 0.255380867625811 -0.0338150153722347 21.428607498842 -1.39244265021219 -14.0421850446088 -6.05088363848205 3.10317801430835 -0.451633394458305 -0.444712672319348 -1.1646814943593 -3.54789068662769 -0.94080925575389 -35.4707925434508 35.6601987380959 -255.886787671573 308.946967377902
0.0349500003531575 0.0572499968335032 0.00564999974519014 16 0.160584406057994 0.042418506705823 -0.174480186186071 0.240894201988501 -1.58156921711262 21.8863263303234 -2.20651007147768 -9.24151273879848 -6.08582558912741 3.5537439539346 1.87810595150075 2.20882546888342 -0.230451473476813 -1.34491848505117 -4.08461602297843 -31.1278390691218 31.4234826029795 -127.837690047025 209.949339972438
-0.0350500006899238 0.05444999679178 0.00564999974519014 16 -0.0509492099285125 0.329291657980842 0.159289375405448 0.369326309819879 6.03494357253788 -20.8885002587265 -3.13066646285663 -4.48580826560554 -3.52296239906088 -1.23247466738234 -3.67046311781369 28.5472887285946 8.22654497887307 29.779763395977 0.539796654957061 16.402691993121 34.0025586238781 36.317888311148 -70.6049458991624
-0.0322500006482005 0.05444999679178 0.00564999974519014 16 -0.0329167087872824 0.317622286009342 0.148215246181159 0.352044294780825 11.5578915857258 -16.4148610595823 -2.82167701192185 -8.8172230733334 -2.78763509932556 -1.14442752682999 -6.45303352814976 23.8093481585051 8.62574128577831 24.953775685335 3.63135651622791 7.59763798624894 26.336320435324 49.6524893611617 -92.2630154121418
-0.0294500006064773 0.05444999679178 0.00564999974519014 16 0.0193942324320475 0.281730863356691 0.120750785108345 0.307130538572146 13.7682729196924 -7.17227820204043 -1.80392319398097 -16.2308485040031 -1.23919645333179 -0.975240572311203 -12.0903329223082 13.458118163742 7.97512917125445 14.4333587360532 10.2864097283272 -9.0585703019627 19.9045162065856 31.7180949524944 -42.2378818019828
-0.026650000564754 0.05444999679178 0.00564999974519014 16 0.052657543818156 0.22874238883572 0.0727488878214111 0.245740306117017 9.26841800555578 4.29837128453846 -0.37827477004997 -22.8919133938604 0.720920542066334 -0.800165999317412 -16.6902650549998 0.164268238944847 4.70862853791337 0.96443423826226 16.3119902849499 -27.1902846783989 31.7225903946794 -21.6568875716037 145.933756357003
-0.0238500005230308 0.05444999679178 0.00564999974519014 16 0.0795486875375111 0.154472911680738 0.01387642813342 0.174305563278421 3.77852909313133 15.2652110758499 1.01057735672868 -27.8572639208675 2.31189933121556 -0.905757329512123 -20.5739355180665 -11.8743145323729 -0.814709983620516 -10.9685572028608 21.5845128747952 -43.1224749967174 49.4545073071924 -457.249609787984 439.056965741972
-0.0210500004813075 0.05444999679178 0.00564999974519014 16 0.0804156454404195 0.0718505004803107 -0.0578992987315481 0.122398934817569 -0.0936400131338774 23.6660043124267 1.88335589032054 -30.3094461390823 3.07449009678917 -1.42252632751936 -20.9999068164875 -18.568637987777 -6.30554836654099 -17.1461116602577 22.883262706808 -53.9754504515091 61.081765762117 -713.70465470329 711.355615161074
-0.0182500004395843 0.05444999679178 0.00564999974519014 16 0.0825562536716462 -0.0182558970196017 -0.116000577574596 0.143544232882855 0.075351806446876 28.226111000671 2.14654149038639 -30.4650365761334 3.07398679268841 -2.11793880809766 -16.8323248871319 -18.0829177387671 -9.14291028722513 -15.9649789306695 18.9788663775183 -58.6911475768045 63.716000542365 -833.872789302587 829.179784726599
-0.015450000397861 0.05444999679178 0.00564999974519014 16 0.0823412644863128 -0.102219911670157 -0.155887653578635 0.20378899557462 0.213880975692387 29.0043819335538 2.05050017290138 -27.9428167900195 2.92567586263412 -2.4720538959179 -7.1694996861594 -12.5850610214904 -8.35740092865922 -10.1130071255725 9.21999985906078 -56.9471987235733 58.5684621019291 -777.737571648663 768.441452866444
-0.0126500003561378 0.05444999679178 0.00564999974519014 16 0.0834919452667235 -0.177073935912613 -0.150529360694563 0.246951760745129 1.24616066413547 26.8796979213941 1.72181831147119 -24.6429337437999 3.32762844728487 -2.23052050586616 5.30692217122097 -6.22382449779018 -4.77815040539783 -3.99330399192401 -3.58510385974979 -51.522631665194 51.8013611806134 -637.119063105062 621.667198370005
-0.0098500003144145 0.05444999679178 0.00564999974519014 16 0.0872947883605957 -0.241804597897766 -0.112995187660369 0.280816231856036 3.2925457631713 22.09557384323 1.13143511204483 -20.8632123480282 4.74006255648708 -1.54234285236224 13.8578630045469 -1.15960549176525 -0.13842295547706 0.382737360596984 -12.7264278925021 -42.9587861912582 44.8058675378179 -432.054718472565 458.011842523541
-0.00705000027269125 0.05444999679178 0.00564999974519014 16 0.0981366364161174 -0.294916971504232 -0.0571236933329298 0.316022049591942 5.51847172217148 13.5216361587333 0.162774880785122 -17.1760742996057 7.35504966318267 -0.693358475865971 16.6626091307724 4.06812324309736 3.99567612890934 4.76148171896333 -16.4998342499873 -30.6977104583391 35.1747873599983 -174.255987145091 324.384096507181
-0.004250000230968 0.05444999679178 0.00564999974519014 16 0.112772148450216 -0.340298090788613 -0.00379313850212687 0.358517413747435 4.01699745747994 -0.00463447984911821 -0.96282022679192 -7.44061454207727 10.9788367340003 0.459123293618487 14.5181004170842 12.6347751276248 6.66274455437379 12.1756518340063 -15.4809206438761 -7.43598006222815 21.0522968117682 32.8903616232659 152.158289631424
-0.00145000018924474 0.05444999679178 0.00564999974519014 16 0.115939222971598 -0.337157304419476 0.0379663288849406 0.358550405766978 -6.38383457769911 -16.7550226157699 -1.78659412831176 10.6181907524213 14.7135147547329 1.99342965763899 15.3568868015351 25.4156862302046 7.53837012735785 23.4222565725656 -17.1434809298469 27.3732133681912 39.8972912795297 -7.83655283569814 123.543735249858
0.0013499998524785 0.05444999679178 0.00564999974519014 16 0.0743646367390951 -0.27917865483294 0.0917792104543575 0.303140634002261 -21.3524065686593 -32.3740535573435 -2.08322127748979 37.8122999511946 16.9139905660842 3.31786392103361 19.2275446290607 40.368856615499 7.26255800499693 37.0509926944654 -21.3107659065505 70.1863535085381 82.1769372877488 -791.482368494563 736.865623999007
0.00414999989420176 0.05444999679178 0.00564999974519014 16 -0.00458804965019222 -0.119227314920475 0.14946969664025 0.191252171324843 -30.4704575560777 -42.4131310891946 -1.91246411973397 61.5074663461588 16.1853486110497 3.36669971908685 20.5900333721416 53.8960274491432 6.68877724052534 50.5293277300564 -22.5024974918756 103.920597435353 117.724534085058 -2051.17678753674 1877.92530320603
0.006949999935925 0.05444999679178 0.00564999974519014 16 -0.0976878301302593 0.0723893774743192 0.204920994054216 0.238276620613198 -24.9875704212754 -44.9014333259987 -1.61077580897135 70.0826305319145 12.3790799626175 1.54953341533748 13.3413893402583 62.2305218499251 6.26256422133943 60.6809884345876 -14.9521651492296 114.984063857913 130.870487663679 -2802.09182528521 2683.58766273837
0.00974999997764826 0.05444999679178 0.00564999974519014 16 -0.146651523907979 0.277961825442811 0.217851545777715 0.38239866875523 -8.24008681728595 -40.4693350788222 -1.38933732809333 57.8155055216397 7.03006641725394 -1.08829945558618 -2.24138556921724 62.2720870918821 5.72475877811326 63.3603865474683 0.852048241123905 98.2848406004619 116.940901576429 -2329.42167383958 2339.55627103284
0.0125500000193715 0.05444999679178 0.00564999974519014 16 -0.143641475439072 0.397428602708193 0.18253406035578 0.460327112939123 7.83457657444611 -30.2511651173415 -1.26827412302028 30.3011367292245 2.45687226156096 -2.96862360731746 -16.6515703600306 51.8133153174646 4.61816050425508 54.7819389247821 15.3832962370103 60.552301846566 83.0920447118243 -986.703833745076 1116.11628208128
0.0153500000610948 0.05444999679178 0.00564999974519014 16 -0.0994766716162363 0.445303892012065 0.114782418052006 0.470495661968102 15.4577055741786 -15.9690534829501 -1.22799049297414 2.42816499405318 0.179365852757378 -3.09917610530539 -22.7103487833194 32.2379705657208 3.13463519997437 35.3371466710262 21.4823582903453 18.3972184770033 45.2621619043432 -5.28116456547717 162.587651379612
0.018150000102818 0.05444999679178 0.00564999974519014 16 -0.0517611328760783 0.408593375422837 0.0476824805493622 0.41460991337326 16.0726122942296 -0.173137340302591 -1.02205360115772 -17.4976330982094 -0.0135548006646764 -1.93434231636805 -21.6629632738709 8.81120682799584 1.36997039708834 10.7455491443639 20.6409096727132 -17.3244957579068 29.0112414728632 -22.0728759608476 13.6562592591564
0.0209500001445413 0.05444999679178 0.00564999974519014 16 -0.00413369337717695 0.343971825606811 -0.0139606220841718 0.344279832696014 14.5372534044567 14.0246993176625 -0.572627871855966 -24.6095899226934 0.0649210171615569 -0.497357771833174 -18.0012827282776 -10.9761991125443 -0.607832356985681 -10.4788413407111 17.4286548564216 -38.6342892403558 43.6597346654276 -109.952806484912 321.443064025512
0.0237500001862645 0.05444999679178 0.00564999974519014 16 0.0338426081339518 0.268990836280282 -0.0621581865344585 0.278145703330693 12.3912698442855 24.2939489215331 -0.0420846304838371 -25.2468215358048 -1.16736634270873 0.680154738122633 -16.4074801597348 -21.5794113369646 -2.57824220226186 -22.2595660750872 16.3653955292509 -49.5407704573379 56.7239137417954 -519.957657983054 583.928735907424