TITLE="DynamicStudio Exported Data"
VARIABLES= "X (m)[m]" "Y (m)[m]" "Z (m)[m]" "Status[-]" "U[m/s]" "V[m/s]" "W[m/s]" "Length[m/s]" "dU/dX[1/s]" "dU/dY[1/s]" "dU/dZ[1/s]" "dV/dX[1/s]" "dV/dY[1/s]" "dV/dZ[1/s]" "dW/dX[1/s]" "dW/dY[1/s]" "dW/dZ[1/s]" "Vorticity X[1/s]" "Vorticity Y[1/s]" "Vorticity Z[1/s]" "Vorticity Magnitude[1/s]" "Lambda-2[1/s²]" "Q-Criterion[1/s²]"
ZONE T="DynamicStudio Data" I=26 J=26 F=POINT
-0.0350500006899238 0.0600499968752265 0.00564999974519014 16 -0.261956702272097 -0.0833868409394442 0.421739244975615 0.503426926037667 7.77229446985073 -29.4542899312433 2.8590708071936 30.2984702860494 -1.05075473946771 -0.224627460912055 -9.71643189873616 30.1072813169835 -6.00513937990623 30.3319087778956 12.5755027059298 59.7527602172926 68.1803513631508 -905.081906036793 878.432259048156
-0.0322500006482005 0.0600499968752265 0.00564999974519014 16 -0.240640729467074 0.00038747478586932 0.396801732263217 0.464068664684705 12.7536411315015 -28.0912541338496 1.76009736579416 42.6449164143374 -2.17721391583926 0.354189807746365 -20.4730534595503 29.2350175341421 -4.96945025750307 28.8808277263957 22.2331508253444 70.736170548187 79.5739971951042 -1222.24076013328 1143.3025728365
-0.0294500006064773 0.0600499968752265 0.00564999974519014 16 -0.189705444176992 0.153600562383072 0.30654123321486 0.391853054059392 21.4204167366927 -24.0960804022841 -0.199539507057228 50.1263853499696 -4.49063236007597 1.21905618138484 -36.2257128156773 25.2282489851473 -3.1374671475848 24.0091928037625 36.0261733086201 74.2224657522537 85.9261364469243 -818.884954053187 1020.55843905841
-0.026650000564754 0.0600499968752265 0.00564999974519014 16 -0.114260529677073 0.276776748110618 0.186617359854281 0.352826977335572 24.2044910571997 -17.6372969053213 -2.18735846077552 31.6211219113267 -7.59450817015418 1.60865104752584 -43.3853056603821 17.2914834988284 -0.553862472780412 15.6828324513025 41.1979471996066 49.258418816648 66.1030552355449 -40.9956923716709 241.975085893209
-0.0238500005230308 0.0600499968752265 0.00564999974519014 16 -0.0439257637659709 0.324403471404609 0.0510604477060648 0.331321979804734 23.2942931312558 -10.3508109960998 -3.55219554243853 6.00567907485729 -10.3915996740892 1.130207254181 -38.6160778149449 7.18346493445796 2.22774351644005 6.05325768027696 35.0638822725064 16.3564900709571 39.161876053189 68.8043217758405 -296.448091869786
-0.0210500004813075 0.0600499968752265 0.00564999974519014 16 0.0281659432252248 0.304505514548049 -0.0446475768756742 0.309047463779931 20.6204864164137 -3.80715787177737 -3.81838926707028 -11.0397744976037 -11.8922744853714 0.234904855118964 -23.5351034622428 -2.30698369480612 4.39196826567645 -2.54188854992508 19.7167141951725 -7.23261662582632 21.1546864621184 173.587915431399 -338.244883838852
-0.0182500004395843 0.0600499968752265 0.00564999974519014 16 0.0831391815344493 0.259832716638921 -0.0935795016311264 0.288413396477539 17.7576709238152 0.927523911842739 -3.19292294573353 -18.5615934544533 -11.4379239487712 -0.370241605534878 -9.601197254531 -9.13806054088281 5.40779513254074 -8.76781893534793 6.40827430879747 -19.489117366296 22.3106773589934 129.085547777841 -185.7578440591
-0.015450000397861 0.0600499968752265 0.00564999974519014 16 0.135995217164357 0.203018090946522 -0.107603756145885 0.267001147338086 13.552596395495 3.97576966444803 -2.12241700156523 -22.6653839622583 -9.2918373337396 -0.426872003826378 -2.53252396933284 -13.4527313570851 5.31768147974995 -13.0258593532587 0.410106967767615 -26.6411536267063 29.6579207999761 36.1398564817637 -24.2764819348985
-0.0126500003561378 0.0600499968752265 0.00564999974519014 16 0.16588237285614 0.138448843648681 -0.114863024501828 0.244700956944897 7.33788636414616 6.1071104627876 -1.06364289517216 -26.1648720964446 -6.49872054655238 -0.088679470843592 -3.26559393363712 -16.0241919734211 4.6928133154673 -15.9355125025775 2.20195103846496 -32.2719825592322 36.0592568614355 -116.044268394752 111.148497126512
-0.0098500003144145 0.0600499968752265 0.00564999974519014 16 0.181978471279144 0.062823200346902 -0.129975601113789 0.232285547109183 1.10456657245969 7.74334526302541 -0.381454535885558 -29.7371759872484 -3.95681901106534 0.346087235206568 -4.62583831343407 -16.8807132995362 4.08831362762995 -17.2268005347428 4.24438377754851 -37.4805212502738 41.4676611772012 -212.689472456148 218.311400676744
-0.00705000027269125 0.0600499968752265 0.00564999974519014 16 0.175697463353475 -0.0230749938524483 -0.141349466353228 0.226675374949461 -1.85943886468698 8.89953252799205 -0.144380068708999 -29.8256275028948 -2.00891136230212 0.790801515118412 -4.64203228707276 -15.7451645782573 3.80577520309391 -16.5359660933757 4.49765221836376 -38.7251600308869 42.3474328565076 -256.024063646188 266.228601685523
-0.004250000230968 0.0600499968752265 0.00564999974519014 16 0.173135585784912 -0.100111956033555 -0.152020139821495 0.251213967997992 -2.03798037316603 9.18413002609256 -0.328993378478721 -27.1440844839936 -0.330993897806478 1.23135718969274 -2.95800908367406 -12.8695071391337 3.78354337022434 -14.1008643288265 2.62901570519534 -36.3282145100861 39.0574611039807 -253.103431728182 255.880038252002
-0.00145000018924474 0.0600499968752265 0.00564999974519014 16 0.163153728644053 -0.171260230754657 -0.151732027112739 0.281019241085618 -3.5367133229152 8.25899577559063 -0.511283396205532 -22.6276324681634 1.5185620428434 1.45186575051434 1.21777820039029 -8.9581078571819 3.53800078362208 -10.4099736076962 -1.72906159659582 -30.886628243754 32.6395620189 -187.729425883329 187.999181308595
0.0013499998524785 0.0600499968752265 0.00564999974519014 16 0.150453312397003 -0.223045234533298 -0.13868292175699 0.302685197269869 -10.8196867091851 5.79590607845071 -0.286182224743544 -19.9704150506534 3.83729450886496 1.12899685272152 9.69525246112542 -3.67960725989667 2.73294749781633 -4.80860411261819 -9.98143468586897 -25.7663211291041 28.0473709361194 -1.24139867577795 62.0746882262835
0.00414999989420176 0.0600499968752265 0.00564999974519014 16 0.0971498847007752 -0.279646476878358 -0.0881109376511692 0.308875038586189 -21.9635282519076 1.59607966018267 0.511846246169132 -18.6214910086349 6.81256313369808 0.323608198382016 21.3658612841869 4.31187316411811 1.11144981583306 3.98826496573609 -20.8540150380178 -20.2175706688176 29.3180211540858 42.7006039970615 -149.077470604826
0.006949999935925 0.0600499968752265 0.00564999974519014 16 0.0201138540108998 -0.322922052421297 -0.00488146056421101 0.323584684001568 -31.2131260675033 -4.06976333771548 1.60527250569676 -13.0143285258717 10.2595017369132 -0.127993193054375 31.7955051362472 15.4057737714146 -0.908028499253842 15.533766964469 -30.1902326305504 -8.9445651881562 35.1105868478206 147.422981787998 -403.238486172267
0.00974999997764826 0.0600499968752265 0.00564999974519014 16 -0.0874668518702189 -0.345901517725239 0.109913983303898 0.373335497731518 -33.7399226587249 -10.0321680231637 2.42667769324196 3.52731374125456 12.9824344014227 0.869334251571117 35.0583138812069 26.689539533561 -2.68740017889209 25.8202052819899 -32.6316361879649 13.5594817644182 43.764897198867 147.587461825275 -455.133409980654
0.0125500000193715 0.0600499968752265 0.00564999974519014 16 -0.178160532712936 -0.295918417738435 0.207161911934769 0.402771576864412 -27.2828768992815 -14.6811729326811 2.75049322576727 32.7140496605673 13.1557696813916 3.55334091220896 27.8684354053688 33.715531143705 -3.81462524562937 30.1621902314961 -25.1179421796015 47.3952225932483 61.5384096606528 195.847950990402 -21.2117234815094
0.0153500000610948 0.0600499968752265 0.00564999974519014 16 -0.246775946219762 -0.159146773471342 0.271945913190721 0.400225739852064 -13.7431098514884 -16.8902705966747 2.65635815703905 63.809161404525 9.74972843077762 6.8572983472718 8.67293542574028 34.0539674821665 -4.12025851689674 27.1966691348947 -6.01657726870123 80.6994320011997 85.3712852156944 -746.290262121669 703.659539935717
0.018150000102818 0.0600499968752265 0.00564999974519014 16 -0.256811022957166 0.057685456937179 0.249092604066827 0.362390174887717 7.41046013493253 -16.2854082939216 2.5222019759202 79.2727609118983 3.62600718961293 8.99698966085899 -22.3379195857559 28.5378016265113 -4.21579969041096 19.5408119656523 24.8601215616762 95.5581692058199 100.654024650316 -1073.40105497269 1070.91856297402
0.0209500001445413 0.0600499968752265 0.00564999974519014 16 -0.201515149672826 0.27378445604234 0.131656496463499 0.36455413449734 27.9071093414161 -13.0721212264698 2.53634802647292 66.442508398059 -2.68267648623116 8.8196656302308 -50.0803592968332 19.7655207918469 -4.592663168708 10.9458551616161 52.6167073233061 79.5146296245288 95.9734648696791 -96.0791533634267 630.527390691821
0.0237500001862645 0.0600499968752265 0.00564999974519014 16 -0.0920892222722371 0.416593191301605 -0.0511201723509779 0.429701738324102 39.4779805972038 -7.74232679232562 2.48504303358904 32.6317723138616 -6.66376392545239 6.73643197515493 -57.5712987544746 9.9184348331777 -5.27153344486193 3.18200285802276 60.0563417880636 40.3740991061872 72.4358834403876 -11.9845731089915 -107.155045187987
0.0265500002279878 0.0600499968752265 0.00564999974519014 16 0.0308126372098922 0.447036564352602 -0.210990006282797 0.495285666288881 37.2588189157609 -1.23240643133209 2.10766176553408 -2.86023212180771 -7.40023321780352 3.99537798994353 -36.290659001044 0.551834494897438 -5.44574109904672 -3.44354349504609 38.3983207665781 -1.62782569047562 38.5867703490959 59.8160838202184 -367.567398125803
0.029350000269711 0.0600499968752265 0.00564999974519014 16 0.1280320028464 0.397009009268368 -0.270256907788959 0.497038372161306 24.8830392717925 5.0149370834134 1.24478732110451 -20.4181668778777 -5.68449775395329 1.79106831254296 -3.49772310287087 -6.87461069617411 -4.16026763233962 -8.66567900871706 4.74251042397537 -25.4331039612911 27.2842110919388 -1.64201059351381 -102.256010715465
0.0321500003114343 0.0600499968752265 0.00564999974519014 16 0.178425720532735 0.334326354348256 -0.237617531681511 0.447294019993376 11.6952301403834 9.48858783884152 0.137085477360572 -17.7871418463768 -3.33084187211635 0.595001209143775 12.1513587885462 -11.5991527680805 -1.85624183295806 -12.1941539772243 -12.0142733111856 -27.2757296852183 32.202571081782 -96.0898697430959 119.529303246937
0.0349500003531575 0.0600499968752265 0.00564999974519014 16 0.197396314541499 0.299930383251049 -0.203808080029363 0.412869559639534 6.12253662162045 11.4985078909711 -0.459356086687878 -12.5671984271394 -1.99244970212535 0.116755781415576 12.8879632318768 -13.8324290841778 -0.465445782530027 -13.9491848655933 -13.3473193185647 -24.0657063181104 30.8526969971147 -132.010882242941 137.918032897871
-0.0350500006899238 0.0572499968335032 0.00564999974519014 16 -0.179578750133514 -0.0827683178097747 0.337143181066106 0.390851182001473 5.84257548572471 -47.2419005239199 2.42409627997731 31.1002552337732 0.00559959990186887 -0.645806248103913 -8.25122446751821 51.6699656612291 -6.88852109099053 52.315771909333 10.6753207474955 78.3421557576932 94.8071507445189 -1504.3401616305 1482.35315188671
-0.0322500006482005 0.0572499968335032 0.00564999974519014 16 -0.160286558071772 0.00623187741473278 0.310888698850758 0.349831959757432 9.61278259089415 -43.9121475877352 1.52537787632364 43.3938659213048 -0.635125164182967 0.142060621870997 -17.2696118431108 48.2688761619975 -5.97295928321267 48.1268155401265 18.7949897194345 87.3060135090399 101.448420428451 -1909.90258154983 1865.27491962264
-0.0294500006064773 0.0572499968335032 0.00564999974519014 16 -0.119886503616969 0.164813120500767 0.231532605335427 0.308453376982831 15.6838463351882 -36.3664432228118 -0.21554553294007 52.0183919186821 -2.50494175845064 1.32698644849933 -29.2155860191616 39.3908972653739 -4.2203719948117 38.0639108168745 29.0000404862215 88.3848351414939 100.507426282173 -1856.62074595701 1738.24841891259
-0.026650000564754 0.0572499968335032 0.00564999974519014 16 -0.0650654729207356 0.300141482203435 0.135242966439885 0.335572771656363 17.2739356488325 -25.852245245261 -2.07446242828898 34.4158310173855 -6.15703216319595 1.94933912002485 -33.9137280706027 25.5547813745183 -1.72527169645095 23.6054422544935 31.8392656423137 60.2680762626465 72.1331876258926 -535.471759134181 644.02295774742
-0.0238500005230308 0.0572499968335032 0.00564999974519014 16 -0.0151924594243367 0.354240756039702 0.0299798960431751 0.355831586891466 16.6158536722738 -14.672079014319 -3.41431976840556 8.48750949668506 -10.5012078564376 1.50860552593596 -29.1348444031766 9.97130989442743 1.10863146372594 8.46270436849147 25.7205246347711 23.1595885110041 35.6304545679028 20.3412170694275 -157.696682816316
-0.0210500004813075 0.0572499968335032 0.00564999974519014 16 0.036521586974462 0.340422191168618 -0.0361821551605438 0.34428221404429 15.0420393149889 -4.59641016201986 -3.76949734868076 -9.88485547776841 -13.6377323610066 0.530850223726937 -16.2366964370071 -3.64484766615514 3.55574367046926 -4.17569788988208 12.4671990883264 -5.28844531574856 14.1716322219141 236.27003927925 -304.850116918255
-0.0182500004395843 0.0572499968335032 0.00564999974519014 16 0.0790245819091797 0.293043832349746 -0.0666857536851118 0.310751608151427 13.9780033543909 3.1834772476225 -3.23543124224169 -19.4359475143889 -14.069747499773 -0.195183908310615 -5.06362269170161 -13.2038036388613 4.84097765141147 -13.0086197305507 1.82819144945992 -22.6194247620114 26.1573096444233 125.645591469949 -154.197385461114
-0.015450000397861 0.0572499968335032 0.00564999974519014 16 0.124274382988612 0.229654842127735 -0.0696368474761645 0.270249439049064 10.9978235328805 8.50183576212618 -2.20313579818616 -24.5752003135697 -12.0009392935365 -0.379809156134869 0.545349794097262 -19.38102835972 4.79695931910751 -19.0012192035851 -2.74848559228343 -33.0770360756959 38.2451411270317 -82.9170401559417 65.9785864395506
-0.0126500003561378 0.0572499968335032 0.00564999974519014 16 0.148129020929336 0.156306283182348 -0.069607449612425 0.226316278789906 5.72244420635464 11.9616038497523 -1.10126085534943 -28.2832201656903 -8.9038138020417 -0.163487796691872 -1.59009717800143 -23.2772453400071 3.85099727028781 -23.1137575433152 0.488836322652008 -40.2448240154426 46.4126126042852 -267.256329366113 269.552994550563
-0.0098500003144145 0.0572499968335032 0.00564999974519014 16 0.160535438855489 0.0729893608903512 -0.0838113216372828 0.195252174293385 -0.00803083878992059 14.1442318187142 -0.326194236782283 -31.4087249669243 -5.9612172649491 0.146038978216119 -4.55426605159054 -24.7388072487813 2.79038597105411 -24.8848462269974 4.22807181480826 -45.5529567856384 52.0788252068605 -407.655380539677 429.77090926494
-0.00705000027269125 0.0572499968335032 0.00564999974519014 16 0.149744997024536 -0.0178758139989804 -0.0970628621436966 0.179344105193147 -2.45765564582833 15.4696502561162 -0.0461554946152515 -31.2448739237918 -3.51972441396404 0.501995164023054 -6.44250743982335 -23.3884205983005 2.30581635584606 -23.8904157623236 6.3963519452081 -46.714524179908 52.8574692248774 -467.351158478011 489.658318685303
-0.004250000230968 0.0572499968335032 0.00564999974519014 16 0.146948432127635 -0.0995848677012448 -0.118158606798388 0.213242687894288 -1.85240170863381 15.7874225400252 -0.254278519792334 -28.6878010021548 -1.11606729640441 0.93281909889363 -5.86017880377796 -19.6443282051539 2.46652837835173 -20.5771473040475 5.60590028398563 -44.47522354218 49.3243410325302 -459.677534956521 464.486515033561
-0.00145000018924474 0.0572499968335032 0.00564999974519014 16 0.138560930887858 -0.17521775085479 -0.125791071511145 0.256366506109989 -2.2210441553579 14.5945527914363 -0.528693350934875 -24.4830890982755 1.66658720498568 1.22281627997869 -2.57680895887776 -14.2513710864326 2.67741121242792 -15.4741873664113 2.04811560794288 -39.0776418897118 42.0797736193395 -367.942856410633 368.198130128777
0.0013499998524785 0.0572499968335032 0.00564999974519014 16 0.13288801074028 -0.233701061379591 -0.127325668326666 0.297468040809914 -7.82218578013217 11.1024125938728 -0.378638473684295 -22.1754114962056 4.9541294586428 1.05022498189021 3.88894130438491 -6.4099729695191 2.26631202026401 -7.4601979514093 -4.26757977806921 -33.2778240900783 34.3697594813609 -199.559452105929 209.152952894839
0.00414999989420176 0.0572499968335032 0.00564999974519014 16 0.0913271959622701 -0.297725848618817 -0.0962183041249712 0.325943706346374 -17.1542144943524 4.69554004668739 0.412488917749371 -21.2622085049418 8.80808719222412 0.432660921547331 12.4529479268088 5.64542473659461 0.785925283316131 5.21276381504728 -12.0404590090595 -25.9577485516292 29.0852242489191 33.1135157640497 -65.3969556110969
0.006949999935925 0.0572499968335032 0.00564999974519014 16 0.0309882497787475 -0.352031220112306 -0.048077592633296 0.356647874620784 -24.9418620915788 -4.49642335415957 1.53831317502502 -15.7385259290588 13.0240225573131 0.112970109171594 20.5830531836685 22.0728231774526 -1.27317871676144 21.959853068281 -19.0447400086435 -11.2421025748993 31.166041440675 265.410522376582 -414.593661543536
0.00974999997764826 0.0572499968335032 0.00564999974519014 16 -0.0579820847511292 -0.383671684175206 0.0313736675916395 0.389294477751839 -27.5047587714971 -15.0153829888292 2.34839673246916 1.99886123025202 16.3690282499996 1.11817650687861 25.4497645363014 39.1325692208879 -2.97490255082323 38.0143927140093 -23.1013678038323 17.0142442190812 47.6261666961493 313.646509795837 -490.608056728379
0.0125500000193715 0.0572499968335032 0.00564999974519014 16 -0.13593171954155 -0.335794355438168 0.107409061862466 0.377851807051167 -22.7045312215446 -24.2792242506214 2.53082639536166 33.8699565197694 16.6837954751437 3.66950336973837 23.233251722198 51.0343050455828 -3.70542985532471 47.3648016758444 -20.7024253268364 58.1491807703908 77.8032266456405 -377.425589078038 219.778047383105
0.0153500000610948 0.0572499968335032 0.00564999974519014 16 -0.197451467116674 -0.188509517452524 0.172280891156212 0.322805863475695 -12.20190914585 -29.6624047459989 2.19663967253948 67.8607701101022 12.6116269939024 6.77800311892046 10.3070061544228 53.9226058872505 -3.42691725188544 47.1446027683301 -8.11036648188333 97.5231748561012 108.623944177459 -1506.65036154806 1469.49526395018
0.018150000102818 0.0572499968335032 0.00564999974519014 16 -0.210834068457286 0.0469205338613635 0.169048540681312 0.274280786834528 5.57221582223272 -29.5669819065219 1.80816501345559 84.7092234002887 5.16479621365629 8.77330097527768 -15.9977028442055 47.7870403689026 -3.01396964521225 39.0137393936249 17.8058678576611 114.276205306811 122.058067701248 -2114.2351592549 2110.69080512018
0.0209500001445413 0.0572499968335032 0.00564999974519014 16 -0.163660796880722 0.2834462586736 0.0767170630592409 0.336172791516698 23.1173004496452 -24.0100243912018 1.66137061666251 70.8776952611762 -2.60395857923658 8.56094031795902 -41.2680508829056 35.5586088249792 -3.0749517457001 26.9976685070202 42.9294214995681 94.887719652378 107.58944500243 -1402.53339900998 1342.64756198731
0.0237500001862645 0.0572499968335032 0.00564999974519014 16 -0.0710963213443756 0.437317361691967 -0.0752312193081404 0.449400598691763 32.8311383266861 -14.349971373628 1.60744590063438 34.677268193568 -7.75761217565306 6.5464312384169 -48.3839384960892 20.8413021388893 -3.62662745090956 14.2948709004724 49.9913843967236 49.027239567196 71.4643412307242 38.8061345115726 93.3326414600119
0.0265500002279878 0.0572499968335032 0.00564999974519014 16 0.0339971927801768 0.469845468971568 -0.209435848040763 0.515532684002284 30.1684951083018 -2.78277874931573 1.37725134234891 -3.14418813996873 -9.27366227308142 3.95356085821264 -28.2964945284204 6.78197752064031 -3.8408510283105 2.82841666242767 29.6737458707693 -0.361409390653001 29.8104302479341 130.052867653109 -356.617530836634
0.029350000269711 0.0572499968335032 0.00564999974519014 16 0.111299245754878 0.413044376427618 -0.244343871385596 0.492642980755623 19.0405169828183 8.0676195088691 0.7744019691345 -22.0642923059465 -7.91549264813499 1.91514601281433 1.83752205783179 -4.07195038232882 -2.81535441067746 -5.98709639514315 -1.06312008869729 -30.1319118148156 30.7393503051634 -14.6352673869924 2.34575537229425
0.0321500003114343 0.0572499968335032 0.00564999974519014 16 0.150452047983805 0.342941860534096 -0.202842200554636 0.4258989278866 8.32667470816095 15.7874803115897 -0.0512929270826838 -19.2576431895573 -5.58341783749798 0.860198055018108 14.7532008203159 -10.4341902174991 -0.934281606058398 -11.2943882725172 -14.8044937473986 -35.0451235011471 39.6849709937879 -259.679269097761 264.707589159908
0.0349500003531575 0.0572499968335032 0.00564999974519014 16 0.162998274962107 0.30428050901896 -0.159393952570196 0.380212437888886 3.90576557127651 19.2249860765503 -0.511542037785244 -13.6982969270368 -4.18201438434867 0.475256120698827 14.7545991724499 -12.9138187907608 0.264981084750281 -13.3890749114597 -15.2661412102352 -32.9232830035871 38.6815842251814 -260.132029425163 260.627368332897
-0.0350500006899238 0.05444999679178 0.00564999974519014 16 0.00778353810310373 -0.0868300632868583 0.124319822054046 0.151840249971317 1.48505501246677 -62.1711804161663 1.87833751044215 30.975736916056 -3.04150614936119 -1.28928135090565 -4.16312838686943 76.3107361182582 -8.64291126038725 77.6000174691639 6.04146589731158 93.1469173322223 121.386202798748 -1954.71645088119 2040.93936259757
-0.0322500006482005 0.05444999679178 0.00564999974519014 16 0.0102083245913187 0.00362590441733649 0.115160596351294 0.115669010654501 3.00425620678205 -57.4399001438197 1.28005114915748 43.01980072144 -1.98521007950581 -0.288633394435603 -9.82212671442653 70.901641795256 -7.92951899555777 71.1902751896916 11.102177863584 100.45970086526 123.626312461531 -2483.86340200867 2490.04583845022
-0.0294500006064773 0.05444999679178 0.00564999974519014 16 0.0201277271906535 0.16220253994475 0.0737000557143862 0.179294415916093 4.27425542892963 -46.9674872183724 -0.0176757926237002 53.6424631375902 -1.36539950428141 1.25139966624056 -14.3208220443932 57.437371588427 -6.3498251931418 56.1859719221864 14.3031462517695 100.609950355963 116.119789631955 -2446.00905324813 2423.01466938325
-0.026650000564754 0.05444999679178 0.00564999974519014 16 0.0300527207056682 0.313164038410954 0.0385788860761871 0.316959321406627 3.71133691407995 -32.5094955549121 -1.52713831544637 38.6579355858888 -3.57948488694744 2.18385933878701 -14.5296845245013 36.9946799584127 -3.94608923790294 34.8108206196257 13.0025462090549 71.1674311408009 80.2848846004714 -1152.76446747927 1139.96499557062
-0.0238500005230308 0.05444999679178 0.00564999974519014 16 0.0387876935799916 0.384218165601293 -0.00649268435818762 0.386225632113475 3.60180841979669 -17.1130177986243 -2.74953636722887 13.2951254299141 -8.28502969543815 1.87961441177294 -10.4775109879569 14.5367744771825 -0.924427930347823 12.6571600654096 7.72797462072808 30.4081432285384 33.8316488996224 -126.938718953641 145.876100645538
-0.0210500004813075 0.05444999679178 0.00564999974519014 16 0.0497471483548482 0.387653268353121 -0.018495413128597 0.391269620007858 4.04781659443879 -3.18041867789616 -3.26431402950727 -6.90398216612126 -12.9369944357454 0.913453049649044 -2.37726071962471 -4.36383709483704 2.06791024539394 -5.27729014448608 -0.887053309882567 -3.7235634882251 6.51932357645382 35.3808264835179 -96.4801217397503
-0.0182500004395843 0.05444999679178 0.00564999974519014 16 0.0618264734745027 0.34250165693035 -0.0171109435614198 0.348457575914043 6.1815938981657 7.83032608923682 -2.97961487828838 -19.9250921834345 -14.9967079395805 0.120552592218826 3.4137760883928 -17.1417156196078 3.89696728973242 -17.2622682118266 -6.39339096668118 -27.7554182726713 33.305023575443 -65.1375563368073 41.202416064999
-0.015450000397861 0.05444999679178 0.00564999974519014 16 0.0858988273143768 0.271728394175104 0.00202533091175913 0.284989527351915 5.66240888343637 15.6437916804025 -2.11325407072309 -27.1405050217776 -14.0110667685635 -0.199885081844045 6.42393162911927 -25.3204715138654 4.0538445634868 -25.1205864320214 -8.53718569984236 -42.7842967021801 50.3430575815815 -306.488110510973 319.914071489243
-0.0126500003561378 0.05444999679178 0.00564999974519014 16 0.0962620019912719 0.187700827671524 0.0174941361716628 0.211669597572102 2.41885897129582 20.8230234772793 -1.01109984642473 -31.6245489716767 -11.2015587458641 -0.179466834662347 2.17511368220483 -31.0680472288066 2.72403349944097 -30.8885803941443 -3.18621352862956 -52.447572448956 60.9508343766025 -564.717338895675 604.122939443946
-0.0098500003144145 0.05444999679178 0.00564999974519014 16 0.102994532585144 0.0941158104703451 0.00773925063976397 0.13973387392965 -2.04959849892042 23.9855484035068 -0.123146848603309 -34.3817622284797 -7.82978921541489 -0.120272809053955 -3.56706103492239 -34.3589011969068 0.955310950936475 -34.2386283878529 3.44391418631908 -58.3673106319865 67.7560858463284 -767.004338380642 826.703745191603
-0.00705000027269125 0.05444999679178 0.00564999974519014 16 0.0871910778681437 -0.0037500280062765 -0.00957392405058879 0.0877952549491315 -3.43271598781359 25.6767579682205 0.226458717488365 -34.0424422898854 -4.5006764387509 0.0100252788029206 -9.01701503732545 -34.1219852665537 -0.0204673139130013 -34.1320105453566 9.24347375481382 -59.7192002581058 69.4033056157415 -848.278193976096 892.095534601498
-0.004250000230968 0.05444999679178 0.00564999974519014 16 0.0839858468373615 -0.0945867120354281 -0.0466202827673017 0.134809937793788 -1.44813282711346 25.9297771447764 -0.00245104584562142 -31.7395166444882 -1.05504954788353 0.328411538171226 -10.9002020688768 -30.2515467970993 0.138141502941725 -30.5799583352706 10.8977510230312 -57.6692937892646 66.1788657752562 -828.265680279824 834.088891904301
-0.00145000018924474 0.05444999679178 0.00564999974519014 16 0.0774752728144328 -0.18015308214565 -0.0698165118438192 0.208163148108127 0.36021268256757 24.1371211739195 -0.40206606122469 -27.7148366325811 2.44575912736535 0.685925791399726 -9.72122777846215 -23.4600618311374 0.770129185808192 -24.1459876225372 9.31916171723746 -51.8519578065006 57.9525756265143 -679.345024551966 684.181610072215
0.0013499998524785 0.05444999679178 0.00564999974519014 16 0.0840735181172689 -0.250846212787728 -0.0993811554847829 0.28261067386787 -1.8100146939757 19.0358334474011 -0.382030235143893 -25.503614115662 5.71816702747028 0.782093943560653 -7.38120718939203 -12.8868926346896 0.76522160951482 -13.6689865782502 6.99917695424813 -44.5394475630632 47.1125467506918 -476.283637308379 485.382103251766
0.00414999989420176 0.05444999679178 0.00564999974519014 16 0.0659344971179963 -0.327053266198685 -0.111572674752 0.35179490984485 -7.17602962844668 9.45235004252429 0.347608269467408 -24.8026537315473 8.73285713995098 0.524865300250062 -4.75866311891135 3.53946919869382 -0.559330093087291 3.01460389844376 5.10627138837876 -34.2550037740716 34.7644520698651 -151.539359939706 170.70174908794
0.006949999935925 0.05444999679178 0.00564999974519014 16 0.0425673826535542 -0.396231444359291 -0.128738014091117 0.418789703594953 -11.6545544117129 -4.6211791024004 1.48763589650367 -19.3430988984528 11.6619399708615 0.445736901270374 -1.19097343068506 26.0977084179096 -2.5923838772733 25.6519715166393 2.67860932718874 -14.7219197960524 29.6973654235451 248.438142445455 -235.182761399378
0.00974999997764826 0.05444999679178 0.00564999974519014 16 -0.0013249095280965 -0.440574700521926 -0.118465144071185 0.456225615770365 -13.6752941514898 -21.2189917676041 2.30642998968204 -0.254585099380427 14.1749535772013 1.38416794535683 5.64719369956455 50.6145598255648 -4.00602843842634 49.230391880208 -3.3407637098825 20.9644066682236 53.6124848686831 246.599241846792 -284.334256933888
0.0125500000193715 0.05444999679178 0.00564999974519014 16 -0.0375306642055511 -0.396798073517469 -0.0923483679922841 0.409127709858087 -11.9981697436162 -36.4909766037474 2.31969659973212 34.9605002606192 15.0230889408399 3.54662730252881 12.0464132185587 69.7022333412461 -3.89714937485689 66.1556060387173 -9.72671661882659 71.4514768643666 97.8595257122782 -839.02809195558 808.552796324112
0.0153500000610948 0.05444999679178 0.00564999974519014 16 -0.0728285078207651 -0.235003168468053 -0.042127476146173 0.249610105940985 -7.88638402028637 -46.1296827118619 1.60830446916366 72.5129826897396 13.3525011015941 6.14499595156079 10.9699652400127 77.3378119176278 -2.49719838596735 71.1928159660671 -9.36166077084902 118.642665401601 138.67999059404 -2711.63452939338 2733.16436863853
0.018150000102818 0.05444999679178 0.00564999974519014 16 -0.0862188164393107 0.0267062375329745 -0.0222811534647675 0.0929696575829111 1.93241813430181 -46.9008329889716 0.738776677056218 91.1763955012269 9.67994720126461 7.78421953493785 -4.70806304030128 71.5207785464817 -1.13565782462914 63.7365590115439 5.4468397173575 138.077228490198 152.175352948738 -3678.30503706395 3728.51169554728
0.0209500001445413 0.05444999679178 0.00564999974519014 16 -0.0628336588541667 0.292980439431655 -0.0672921909213376 0.307105593458604 12.3697429471324 -38.0704353138479 0.203722614774974 76.5420987550435 5.31712639935189 7.53784650771859 -23.4418422568227 54.633361660418 -0.642622243857237 47.0955151526994 23.6455648715977 114.612534068891 126.147268108699 -2585.2440285877 2561.35426955398
0.0237500001862645 0.05444999679178 0.00564999974519014 16 -0.0128000529607137 0.464154235261376 -0.160590638021046 0.491316953184883 17.8993119245823 -22.0511044268051 0.0398451456450586 38.0928757374597 1.39076895800927 5.77595098916296 -28.9206822169355 32.0612034412713 -1.04839359791098 26.2852524521084 28.9605273625805 60.1439801642648 71.7420726741939 -619.490508540234 660.628599962696