TITLE="DynamicStudio Exported Data"
VARIABLES= "X (m)[m]" "Y (m)[m]" "Z (m)[m]" "Status[-]" "U[m/s]" "V[m/s]" "W[m/s]" "Length[m/s]" "dU/dX[1/s]" "dU/dY[1/s]" "dU/dZ[1/s]" "dV/dX[1/s]" "dV/dY[1/s]" "dV/dZ[1/s]" "dW/dX[1/s]" "dW/dY[1/s]" "dW/dZ[1/s]" "Vorticity X[1/s]" "Vorticity Y[1/s]" "Vorticity Z[1/s]" "Vorticity Magnitude[1/s]" "Lambda-2[1/s²]" "Q-Criterion[1/s²]"
ZONE T="DynamicStudio Data" I=26 J=26 F=POINT
-0.0350500006899238 0.0600499968752265 0.00564999974519014 16 -0.198620925943057 -0.189701388299388 0.255212584652472 0.374927129333405 -8.83929271620525 -23.531021678624 7.4124256611384 25.7716423125821 11.3348174736764 -0.168197944980308 -0.382467048492726 21.6834005490954 -7.99851781702754 21.8515984940757 7.79489270963112 49.3026639912061 54.4885803240525 -506.513506492618 492.762917158394
-0.0322500006482005 0.0600499968752265 0.00564999974519014 16 -0.224644750157992 -0.123762348775441 0.256048753640304 0.362413226840183 -9.24707391371669 -22.6592381316206 6.07689983720705 37.8231116203775 6.65000507995721 -0.881113279570263 -5.36320839911976 20.7084216622851 -6.21781378508838 21.5895349418554 11.4401082363268 60.4823497519981 65.2311177812207 -857.990289825631 862.536040552515
-0.0294500006064773 0.0600499968752265 0.00564999974519014 16 -0.251969528992971 0.00584186173102353 0.227820149514203 0.339742242610627 -5.07099496321561 -20.3435174868595 3.44209490861874 52.1782976092785 -2.0046169915654 -1.90275964748183 -14.6435757715404 17.8423195105908 -2.90872782787807 19.7450791580726 18.0856706801592 72.521815096138 77.3070067959441 -1039.33035532295 1176.59076509788
-0.026650000564754 0.0600499968752265 0.00564999974519014 16 -0.253718232313792 0.148322301318015 0.174592265728861 0.34184046824366 9.25278913180213 -16.4573058990235 0.54314091938408 48.1692647990595 -10.3856538064185 -2.67472877951412 -23.9798376785948 12.7598538501757 0.521135884632682 15.4345826296898 24.5229785979789 64.6265706980829 70.8251117928095 -735.845223367595 743.203264027013
-0.0238500005230308 0.0600499968752265 0.00564999974519014 16 -0.196562649408976 0.261465854102668 0.0877602642906519 0.338678508312351 22.0530737275775 -11.1826576636643 -1.59691841815058 34.1862952522679 -14.6737094931407 -2.7505012107318 -22.3371633715821 6.82386136456306 2.94373784285672 9.57436257529486 20.7402449534315 45.3689529159322 50.7953547889925 -10.1923009317811 63.5145643866923
-0.0210500004813075 0.0600499968752265 0.00564999974519014 16 -0.122380845944087 0.337729828999266 0.0423193400430804 0.361703518633073 29.208893536222 -5.08248437723554 -2.54418034868499 16.3827723158984 -14.0167223614349 -2.10399201470165 -14.6468574874919 1.94031306518159 4.00225057480563 4.04430507988324 12.1026771388069 21.4652566931339 24.9717528901657 113.300534872474 -298.52673480824
-0.0182500004395843 0.0600499968752265 0.00564999974519014 16 -0.021493553717931 0.360248304064153 -0.00139376592861179 0.360891612559765 29.8307665726799 0.852507210036119 -2.44247919182071 -2.37362410047899 -10.1889241581574 -1.13586946508319 -8.43106762369055 -1.22526865946957 3.56555395791032 -0.0893991943863841 5.98858843186984 -3.2261313105151 6.80287489631906 103.335491502493 -253.870290059918
-0.015450000397861 0.0600499968752265 0.00564999974519014 16 0.0559969623883565 0.335296548230496 -0.0112451737684508 0.340126283878637 26.0976993270916 5.30935261351502 -2.00551384584596 -17.6050392805946 -5.70723755517014 -0.435763029872888 -6.86956363650363 -2.73518175636224 2.55950452354603 -2.29941872648935 4.86404979065767 -22.9143918941096 23.5375373121863 6.37100055543821 -18.2538253225645
-0.0126500003561378 0.0600499968752265 0.00564999974519014 16 0.131732726097107 0.270099425604591 -0.0426954044390004 0.303529419327213 20.6373144472992 8.16002567039556 -1.6461576607237 -27.0233148232511 -2.47017571229582 -0.411385399060808 -9.76520124842734 -3.48670592991059 1.88271556998919 -3.07532053084978 8.11904358770364 -35.1833404936467 36.2387073919362 7.58442115231614 186.227263946733
-0.0098500003144145 0.0600499968752265 0.00564999974519014 16 0.176421411037445 0.187649151058868 -0.0681416234145096 0.266420718051584 13.1053773990292 10.0368113313594 -1.45080796986325 -30.3218268815305 -0.749710986450627 -0.84711524684576 -9.67347354655225 -3.5919754689197 1.61298421147834 -2.74486022207394 8.222665576689 -40.3586382128899 41.2791250539995 -62.9288161732476 297.361535356594
-0.00705000027269125 0.0600499968752265 0.00564999974519014 16 0.207933562596639 0.101355405535627 -0.0959433334167503 0.250428448688521 6.653140267884 11.6343638885199 -1.31233306567892 -31.8587511509733 0.169484787572951 -1.24360014941013 -10.1137915186929 -3.02526969800071 1.06366267408884 -1.78166954859058 8.801458453014 -43.4931150394932 44.4104838199169 -274.850301516536 362.00599272221
-0.004250000230968 0.0600499968752265 0.00564999974519014 16 0.217395133972168 0.0100609577982201 -0.125972939856971 0.251457846810957 -1.71560203396383 12.9424760111324 -1.13191405428057 -31.0574315176199 1.15221006919366 -1.23996207728246 -8.05409142074386 -2.51704706939338 -0.255826536596536 -1.27708499211091 6.92217736646328 -43.9999075287523 44.5593912448162 -381.822470800081 387.889876874632
-0.00145000018924474 0.0600499968752265 0.00564999974519014 16 0.200356563727061 -0.0698079248416858 -0.143731951295631 0.256270897338086 -10.2849713437882 13.1090575797523 -0.941533131893528 -28.0252448918228 2.80465294717595 -0.995136200202348 -4.90208603598359 -2.78845600368486 -1.57877539291833 -1.79331980348251 3.96055290409006 -41.1343024715751 41.3634236378795 -239.367641243582 342.958146468144
0.0013499998524785 0.0600499968752265 0.00564999974519014 16 0.159251792430878 -0.142679740639675 -0.157360588540323 0.265482573076293 -17.6534395498179 11.3269190079646 -0.616881561453487 -22.5431998335084 5.42263079860282 -0.696502024931906 2.61448124198367 -3.62441486751268 -1.51471003879193 -2.92791284258078 -3.23136280343715 -33.8701188414729 34.1496607525856 -2.12747719835912 177.231455464933
0.00414999989420176 0.0600499968752265 0.00564999974519014 16 0.0966145157814027 -0.189445963277055 -0.127927913244736 0.248172699241473 -19.1309287185592 7.49315025265528 -0.23477642432306 -19.8911571425295 8.86041859887963 -0.344673392248655 10.1620533916052 -3.678362955705 0.695573935152713 -3.33368956345634 -10.3968298159282 -27.3843073951847 29.4806351329282 0.621636150846314 -26.4865298823867
0.006949999935925 0.0600499968752265 0.00564999974519014 16 0.0439789577325185 -0.246532501258577 -0.0926583748031408 0.267016848384532 -18.6387151540652 2.5555198956582 0.0505527799127512 -18.3637501128872 12.3102536152587 0.0323016112304608 18.7146126403555 -2.02348126443629 4.37935276281847 -2.05578287566675 -18.6640598604427 -20.9192700085454 28.1103047190261 100.637041605828 -211.113661349917
0.00974999997764826 0.0600499968752265 0.00564999974519014 16 -0.017145291964213 -0.285477607107411 -0.00971210848928119 0.286156863009816 -20.9755101165781 -2.4879763153 0.129929821598725 -12.8946934243377 14.458707497455 0.170817495749562 25.0287659657276 1.14986834225643 7.74423374908795 0.97905084650687 -24.8988361441289 -10.4067171090377 27.0038949575753 231.474406693756 -389.276500724905
0.0125500000193715 0.0600499968752265 0.00564999974519014 16 -0.0826892697811126 -0.316863221691606 0.0594921756388309 0.332834997498699 -28.7119573680686 -7.21160056233146 0.18593246461057 4.5159745852093 14.2251089237875 -0.275918190040151 32.7628987425192 4.88679594781558 8.96742906814976 5.16271413785574 -32.5769662779086 11.7275751475408 35.0064046708945 180.558422741377 -510.51643258084
0.0153500000610948 0.0600499968752265 0.00564999974519014 16 -0.186185202201207 -0.264309811248289 0.180591364259599 0.370321274957237 -33.0104410775303 -11.6149403020642 0.226159745206912 30.8894385319174 11.5541922242436 -1.04026585591471 35.9919892368042 8.55192962192669 8.1325077441056 9.5921954778414 -35.7658294915973 42.5043788339816 56.3722182761132 67.8038602079903 -196.36676579057
0.018150000102818 0.0600499968752265 0.00564999974519014 16 -0.27580261250337 -0.152194980764762 0.264602507497766 0.411393826166333 -24.0237281561777 -14.8393464147858 -0.0696208140239529 53.5222887452559 7.23458608494325 -1.5156884344908 27.7525716538875 11.3457143806076 6.50934434687191 12.8614028150984 -27.8221924679115 68.3616351600417 74.9186441271356 -141.248884219049 530.276471843207
0.0209500001445413 0.0600499968752265 0.00564999974519014 16 -0.325975846846898 0.026054064942291 0.336745599894008 0.469400326028375 -3.57994968798027 -15.6589698669657 -1.15521947004047 61.4257522731594 2.39404655594459 -1.22080470781442 7.95995745932157 12.2719155319457 5.35019536261804 13.4927202397601 -9.11517692936204 77.0847221401251 78.7857495829183 -972.207841900479 971.12573433561
0.0237500001862645 0.0600499968752265 0.00564999974519014 16 -0.298044131596883 0.184104395186684 0.307910536319638 0.466405007566431 19.9827751409483 -13.3514821195547 -2.92860906169 50.0769100442813 -2.09938853207727 -0.363078211532378 -17.896875880667 10.2982370986211 4.39410955329027 10.6613153101534 14.968266818977 63.428392163836 66.0369108014296 -61.4992599694046 656.55703265965
0.0265500002279878 0.0600499968752265 0.00564999974519014 16 -0.21003411591053 0.300332099201769 0.227020053014288 0.431105328345486 32.9172497687074 -8.5276848888482 -4.37229966940984 29.949647315749 -5.5276841461251 0.50493802667319 -31.8577146377121 5.64154370760637 2.85172078811195 5.13660568093318 27.4854149683023 38.4773322045972 47.5640394361549 -9.39275186117158 9.41228369786505
0.029350000269711 0.0600499968752265 0.00564999974519014 16 -0.105130638678869 0.348246032145107 0.115402093978676 0.381635157432463 32.9384720731214 -2.91265794835929 -4.6926405823334 10.536782336902 -7.48356636256338 1.06623770299816 -31.8767608040842 -0.0862339510667742 0.935315356921473 -1.15247165406493 27.1841202217508 13.4494402852613 30.3511454006407 36.9397766180305 -341.493070089536
0.0321500003114343 0.0600499968752265 0.00564999974519014 16 -0.0143877951304119 0.357700315796925 0.0331849736328392 0.359524362241208 21.0273754916672 1.6968772035498 -3.9876623164986 1.15378713568457 -8.10240028019878 1.34308827349099 -18.8014581964922 -4.74669541791293 -0.735436513984744 -6.08978369140392 14.8137958799936 -0.543090067865232 16.0258840818227 60.910658446344 -250.434182268426
0.0349500003531575 0.0600499968752265 0.00564999974519014 16 0.0212704304854074 0.35514562277589 0.00108698420537015 0.355783678833884 12.1019751553124 3.74987580246973 -3.39049959933281 -1.06720615977756 -8.08865657150875 1.49856882149463 -10.7688425997952 -6.78764121220335 -1.4129222069982 -8.28621003369797 7.37834300046237 -4.81708196224728 12.0956810798746 52.7857110525588 -125.897346292056
-0.0350500006899238 0.0572499968335032 0.00564999974519014 16 -0.134096710681915 -0.227070797732546 0.196976618084203 0.329154770693809 -9.55068923138119 -39.3755398026868 6.21015487652928 30.1358171165124 16.7238840554064 -0.404142577317602 0.894551147235357 44.1863944779887 -6.15677876743382 44.5905370553063 5.31560372929392 69.5113569191992 82.7550625559297 -1002.39842297638 995.027975593061
-0.0322500006482005 0.0572499968335032 0.00564999974519014 16 -0.160684717098872 -0.145768349102242 0.198685679179616 0.294183597469681 -10.8259655607277 -37.8501104996183 5.2379116611139 44.1209313446622 10.532943527718 -1.03830266269048 -3.14721251324337 41.869718822473 -4.78766893001096 42.9080214851635 8.38512417435727 81.9710418442805 92.9013472250399 -1648.21119354299 1617.31399700322
-0.0294500006064773 0.0572499968335032 0.00564999974519014 16 -0.194784508148829 0.0114871823467547 0.177207389816952 0.263581901842266 -7.95802522182095 -34.156095475589 3.2296055446624 60.5966882473963 -1.29839281084367 -1.93773923591338 -10.4798366468469 36.4453511958013 -2.36058598322538 38.3830904317147 13.7094421915093 94.7527837229852 103.146984733177 -2109.890333652 2206.39680820243
-0.026650000564754 0.0572499968335032 0.00564999974519014 16 -0.205206125577291 0.180999128668736 0.13710053774373 0.306050316129398 4.70575543115474 -28.0174353789483 0.841322244868583 54.6332959584484 -13.387135670066 -2.58222872976302 -17.799783504472 27.7957131171233 0.345620205507532 30.3779418468863 18.6411057493406 82.6507313373967 90.0080749989546 -1395.70761405031 1551.43803503695
-0.0238500005230308 0.0572499968335032 0.00564999974519014 16 -0.165144036610921 0.306495438819014 0.0713663960441287 0.355394385618761 16.3083398324569 -19.4838838616333 -1.11896355876024 35.9416308798322 -20.1771505614453 -2.61273795134851 -16.1856739987267 17.442833732016 2.54015513783301 20.0555716833645 15.0667104399665 55.4255147414656 60.837647911345 -335.598919185121 388.861728495256
-0.0210500004813075 0.0572499968335032 0.00564999974519014 16 -0.106365290085475 0.378652610327554 0.0366146664336945 0.395008870838223 22.9393370934 -9.5029846191671 -2.14703233285482 14.0907821280971 -19.8594917117769 -1.99767589360708 -9.69037194992188 7.96270825471774 3.67842263370523 9.96038414832482 7.54333961706705 23.5937667472642 26.6978848279208 244.787460845348 -315.228747650214
-0.0182500004395843 0.0572499968335032 0.00564999974519014 16 -0.0262061071395874 0.389263252782791 0.00522996224773428 0.390179436315605 24.4103682389209 0.208639628323229 -2.20536720269298 -6.57332700821225 -14.6437313506682 -1.06974668296895 -5.27109497076141 0.901443972435604 3.39411416964302 1.97119065540455 3.06572776806843 -6.78196663653548 7.6993084629037 209.943047586382 -333.598720777025
-0.015450000397861 0.0572499968335032 0.00564999974519014 16 0.0408083299795787 0.349383124221737 -0.00441196153561274 0.351785947262331 22.4358890587704 7.80523309591041 -1.80078316457466 -21.332011189876 -8.21095206798251 -0.407129503454108 -5.25661236452507 -3.3681755868412 2.32960379802355 -2.96104608338709 3.45582919995041 -29.1372442857865 29.4904993843232 8.10778433129546 4.58247461485134
-0.0126500003561378 0.0572499968335032 0.00564999974519014 16 0.107904349565506 0.275896699732984 -0.0323294679735166 0.298005926246708 18.0723827300185 13.0817507292188 -1.36149898803556 -29.2562739599139 -3.33004163632972 -0.400557534449852 -8.70519554235669 -5.79062450704096 1.43980116484673 -5.39006697259111 7.34369655432113 -42.3380246891326 43.3069398090949 -9.77848388193019 329.595942932905
-0.0098500003144145 0.0572499968335032 0.00564999974519014 16 0.148569448788961 0.188858897886239 -0.0575004456254343 0.247076639266815 11.3534338499662 16.7730307752412 -1.1116104833116 -31.4724170358537 -0.519980587292157 -0.836036691487825 -9.77736689002103 -6.71164702330646 1.05904103249793 -5.87561033181863 8.66575640670943 -48.2454478110949 49.3684247810773 -364.552603319919 516.977519135402
-0.00705000027269125 0.0572499968335032 0.00564999974519014 16 0.175957808494568 0.10092519118567 -0.0885429593183411 0.221329844871686 4.99700846775856 19.6485886053762 -1.03341861019405 -32.5412264960141 1.00668632073063 -1.20898460431902 -10.4704952544912 -6.43995186767904 0.732609322872737 -5.23096726336003 9.43707664429716 -52.1898151013903 53.293510246727 -600.280955122827 630.211747662827
-0.004250000230968 0.0572499968335032 0.00564999974519014 16 0.179660891691844 0.00742047560556481 -0.11770692280028 0.214913980784946 -2.32596060431771 21.4790416016513 -1.01245491188088 -32.014424403682 2.31857945795998 -1.15633812966906 -8.3389467958699 -5.96780029962382 -0.00143848947032359 -4.81146216995476 7.32649188398902 -53.4934660053333 54.2068128264595 -666.788631830691 666.902637080016
-0.00145000018924474 0.0572499968335032 0.00564999974519014 16 0.163044253985087 -0.0770844774320722 -0.137095330811377 0.226540449255338 -9.41271696937434 21.1616186080513 -0.964629476086575 -29.5129512412881 4.21246440082667 -0.832871621039719 -4.07926596696171 -6.41529534875584 -0.759638356741727 -5.58242372771612 3.11463649087513 -50.6745698493394 51.0761827524497 -536.742048931306 579.563296704326
0.0013499998524785 0.0572499968335032 0.00564999974519014 16 0.124537757635117 -0.156608726751486 -0.143282830110838 0.246101433917147 -14.734878703645 17.9648495780604 -0.723791936536888 -24.8991086737763 7.183420306751 -0.451799238382334 3.31810665420583 -7.66308787539061 -0.56929309794844 -7.21128863700827 -4.04189859074271 -42.8639582518367 43.6538491434524 -248.762761998166 344.700349774817
0.00414999989420176 0.0572499968335032 0.00564999974519014 16 0.0762089546521505 -0.214502982560468 -0.118066431370874 0.256435209191646 -14.8399613064628 12.0332442382275 -0.359231565293901 -22.7550147938618 11.2572575315923 -0.0543585786760337 9.58399464231036 -7.77067184225386 1.15547997933665 -7.71631326357783 -9.94322620760426 -34.7882590320893 36.9950294537117 -64.3139738748299 105.640112709968
0.006949999935925 0.0572499968335032 0.00564999974519014 16 0.0357050037384032 -0.281165350590212 -0.0839232672076711 0.29558740914201 -13.6647610352437 4.41419949297523 -0.031899323300325 -20.9906210562398 15.5980411208175 0.293781727726012 15.8136388824618 -4.8432665654883 3.90239971800193 -5.13704829321431 -15.8455382057622 -25.404820549215 30.3788619493045 98.8794282899516 -111.014976450712
0.00974999997764826 0.0572499968335032 0.00564999974519014 16 -0.00822734594345098 -0.328637881189061 -0.0168757112087527 0.329173716755317 -15.8533174902297 -4.00078184854197 0.146965733535026 -13.9564056512617 18.5704729970287 0.296724729552745 20.6379725241226 1.39071743177943 6.36435709514114 1.09399270222669 -20.4910067905876 -9.95562380271974 22.8077316852359 346.182780292334 -336.392925862305
0.0125500000193715 0.0572499968335032 0.00564999974519014 16 -0.0636325967311859 -0.357896204755719 0.0467287413760399 0.366500171917954 -23.7826018346908 -12.477788592591 0.352478891325818 5.61283552014616 18.6131904802384 -0.382550374257622 28.248885146066 9.04988193465119 7.20601820775208 9.43243230890881 -27.8964062547402 18.0906241127372 34.5608295904482 278.286401657319 -416.380295379329
0.0153500000610948 0.0572499968335032 0.00564999974519014 16 -0.151595706542333 -0.299347096226023 0.152164003169552 0.368434290100154 -28.8197636892528 -20.1300416010021 0.587915655866822 33.850320380376 15.4457532633576 -1.37766760393491 32.3831422431524 15.9510313000524 6.5420452867537 17.3286989039873 -31.7952265872856 53.980361981378 65.0007670653392 64.8198752676432 151.708679300546
0.018150000102818 0.0572499968335032 0.00564999974519014 16 -0.232443494002024 -0.172608808044946 0.232592434078166 0.371379884900855 -22.0710680384302 -25.1985770694532 0.478816477631425 57.3753905165101 10.0716383567449 -1.94245142236436 25.9421790480573 20.4390093133074 5.20215140607123 22.3814607356718 -25.4633625704259 82.5739675859633 89.2623814433779 -1033.48549571554 1188.34377431792
0.0209500001445413 0.0572499968335032 0.00564999974519014 16 -0.278463634252548 0.0180935792570623 0.296500384082228 0.407163174872652 -4.38319835784853 -26.0747806999392 -0.457076881188287 65.2872473353862 3.97055469959685 -1.57819458856163 8.20533090901541 21.6952947523311 4.05062052752468 23.2734893408927 -8.6624077902037 91.3620280353254 94.6768862054092 -1721.81095474208 1721.26532889758
0.0237500001862645 0.0572499968335032 0.00564999974519014 16 -0.257411738634109 0.191053827861324 0.276319553478 0.423219640330386 15.9903216143472 -22.0482410859401 -2.13535852830146 53.463941716352 -1.78016033869329 -0.596403145245173 -14.6960863451787 18.9070245782572 3.04145168255861 19.5034277235023 12.5607278168772 75.5121828022921 78.9952234494107 -924.000842111016 1173.4348545631
0.0265500002279878 0.0572499968335032 0.00564999974519014 16 -0.185190305312475 0.316127414676982 0.20795990760785 0.421282938966611 27.172020648482 -13.918490849349 -3.54686923184264 32.2560833247696 -6.33086281510192 0.310581901025473 -26.504439644878 11.905191180273 1.73395086901987 11.5946092792475 22.9575704130354 46.1745741741186 52.8542931441625 23.4761478359258 215.365890801068
0.029350000269711 0.0572499968335032 0.00564999974519014 16 -0.0958444186051686 0.370348615700689 0.116176120802023 0.39980137665319 26.9233287040275 -4.02979400685926 -3.88271374873675 11.6153148269313 -9.06387057533901 0.828836742901077 -25.6209778579527 2.20539246086513 0.360960223427565 1.37655571796405 21.7382641092159 15.6451088337905 26.8182113972546 46.0128876620571 -292.082520046072
0.0321500003114343 0.0572499968335032 0.00564999974519014 16 -0.0210889275868733 0.380271504498863 0.0485874392020438 0.383942572852771 16.9572603919422 4.51895274465659 -3.23471841682344 1.20703874748558 -9.98937670462416 1.03367284748512 -14.5324818722207 -6.76587965392249 -0.769902540040469 -7.79955250140761 11.2977634553973 -3.31191399717101 14.1223671047378 96.7051840829462 -220.226385010556
0.0349500003531575 0.0572499968335032 0.00564999974519014 16 0.0104814330736795 0.37717120792872 0.0217424543879073 0.377942740176998 9.86444536857658 8.6505782403202 -2.65569847318174 -1.18438265753852 -10.0081507200682 1.12672866956899 -7.93243902926261 -11.3000085702747 -1.21821395534294 -12.4267372398437 5.27674055608087 -9.83496089785871 16.7031208217721 85.0477615253277 -96.6383199045494
-0.0350500006899238 0.05444999679178 0.00564999974519014 16 0.0204043447971345 -0.296962840977746 0.00852397130026172 0.297785030340516 -10.4294662657578 -56.5634880045025 3.88625830770621 36.4704184990274 12.4983726527405 -0.553191939874686 3.87375204048741 72.2298395277709 -3.00358098624331 72.7830314676456 0.0125062672187934 93.0339065035299 118.121452688894 -1985.16818428577 1951.2311594399
-0.0322500006482005 0.05444999679178 0.00564999974519014 16 -0.0115502317746481 -0.19182171232745 0.0221849798962163 0.193445471663926 -13.05092695043 -55.5710302397431 3.54555447934876 53.3070825836771 7.39162814724241 -1.09539236497887 2.02150283097437 68.3847328746515 -2.37556237507071 69.4801252396304 1.52405164837439 108.87811282342 129.167542319002 -2997.21229565806 2947.04668241637
-0.0294500006064773 0.05444999679178 0.00564999974519014 16 -0.0591007932027181 0.0117740957976397 0.0201384576518709 0.0635381032581131 -12.8439854217495 -52.1541236741415 2.65107157991579 73.1682103982745 -2.53470890408909 -1.79722014759453 -0.596748120049717 58.7572966303083 -1.42226630366492 60.5545167779028 3.2478196999655 125.322334072416 139.223149125305 -3908.26927401424 3977.63407637733
-0.026650000564754 0.05444999679178 0.00564999974519014 16 -0.0899567015965779 0.233405662527851 0.0131266894781341 0.250484972481098 -4.00950096131351 -44.6915671783854 1.21650867834924 64.4369437760698 -12.8211360133663 -2.19028629458383 -3.85833115599468 43.5823938337118 0.0277246382651728 45.7726801282956 5.07483983434392 109.128510954455 118.447980770498 -2813.65252833265 3030.87934862124
-0.0238500005230308 0.05444999679178 0.00564999974519014 16 -0.085781722466151 0.386813918078939 -0.00748542951924414 0.396282150473533 4.62032938143544 -32.8218518522105 -0.35367714867193 38.5866672652092 -18.4798053249853 -2.10261974292055 -2.47082882042854 26.2789756920436 1.76517607832418 28.3815954349642 2.11715167175661 71.4085191174197 76.8711512413994 -1004.9111464369 1211.01949097109
-0.0210500004813075 0.05444999679178 0.00564999974519014 16 -0.065540513197581 0.45643363095917 -0.00276541954682519 0.461123482253988 9.9406439039299 -18.1160474541852 -1.46688011373474 10.3713098254098 -17.7230282573433 -1.53233703231064 1.08449761318345 11.2693864279384 3.06014828652308 12.801723460249 -2.55137772691819 28.4873572795949 31.3356534419405 -0.89681839929787 6.75290414660173
-0.0182500004395843 0.05444999679178 0.00564999974519014 16 -0.0283664405345916 0.444664375703239 0.000452935928478837 0.445568476352523 12.954740997073 -3.37335127035749 -1.73745942152208 -13.2895326925769 -12.5031106314 -0.722014263250162 1.35980826454774 0.924877911806055 3.03407265629933 1.64689217505622 -3.09726768606982 -9.91618142221943 10.5183637013465 198.451834328433 -202.404155810465
-0.015450000397861 0.05444999679178 0.00564999974519014 16 0.0111364829540253 0.37748542203956 0.00695834542382121 0.377713758918056 14.0452716358001 8.87629992687349 -1.3392425341804 -27.2314202866699 -6.32027513292716 -0.170842453017839 -1.68239905887126 -5.01061906988011 1.78498215238806 -4.83977661686227 0.34315652469086 -36.1077202135434 36.4322474343966 -38.577787423327 163.624086897021
-0.0126500003561378 0.05444999679178 0.00564999974519014 16 0.0561822891235351 0.286282320572373 -0.00894989661661383 0.2918803133699 11.7717855289762 18.2909969175778 -0.750893644797823 -32.8875244769034 -1.67052595079651 -0.226914226672328 -6.46537462131867 -8.40220437637218 0.374895241296645 -8.17529014969985 5.71448097652084 -51.1785213944812 52.1414586868086 -451.315813559512 578.906061344607
-0.0098500003144145 0.05444999679178 0.00564999974519014 16 0.0831391525268554 0.188365848736527 -0.0301771265470112 0.208097262403306 6.70273853973914 25.5510093828247 -0.436624700704412 -33.4129212240463 1.09116770534803 -0.696268070683669 -9.31495038392483 -10.1834192872409 -0.281820353229844 -9.48715121655724 8.87832568322042 -58.9639306068709 60.3786039732209 -823.631664062903 847.693667000563
-0.00705000027269125 0.05444999679178 0.00564999974519014 16 0.0987951485315959 0.0959589267973691 -0.0627615178682997 0.151352585477143 1.07902027832651 31.2441350523487 -0.524413444802393 -33.5941234569189 2.55790194642254 -1.05682648782494 -10.2671980510784 -11.1208281523774 -0.146454800545995 -10.0640016645524 9.74278460627598 -64.8382585092676 66.3340466721503 -1032.59483669085 1034.70967114797
-0.004250000230968 0.05444999679178 0.00564999974519014 16 0.0924795087178547 -0.00163367456484896 -0.0908731552343428 0.129665179472072 -3.48334935817193 34.4890589993599 -0.821104864106869 -33.202151855544 3.48663322196 -0.9329514953387 -8.09848666993227 -12.0367370497831 0.283386578131972 -11.1037855544444 7.2773818058254 -67.6912108549039 68.9808260793527 -1115.00658050054 1115.08734463241
-0.00145000018924474 0.05444999679178 0.00564999974519014 16 0.079846822420756 -0.0916542588009421 -0.111221146557946 0.164760922699243 -6.92191372644319 33.4730675038829 -1.02740392509281 -31.3586614284902 4.62618591815741 -0.459852672656103 -2.48492953523063 -13.4240385583197 0.679798547566242 -12.9641858856636 1.45752561013782 -64.8317289323731 66.1312904224842 -1014.70274599839 1007.36179222265
0.0013499998524785 0.05444999679178 0.00564999974519014 16 0.0509893639882406 -0.179421519918542 -0.1044711239277 0.213790113860585 -7.83975528963393 27.2839098769317 -0.915023475732472 -28.2212276503482 6.82305917600705 0.0928134683634771 3.6462065101528 -14.098682319363 1.1863553604092 -14.1914957877265 -4.56122998588527 -55.5051375272799 57.4719380532748 -724.054206101177 719.933066837151
0.00414999989420176 0.05444999679178 0.00564999974519014 16 0.0298295795917511 -0.251731740863373 -0.0831530311114814 0.266782870064313 -5.22890202005212 16.7093325163429 -0.562852665909758 -27.0515739765708 10.3679001104466 0.587593866098145 6.84742630154357 -11.58262986768 2.01237696108293 -12.1702237337781 -7.41027896745333 -43.7609064929136 46.0222067831088 -348.670225158593 418.802586605893
0.006949999935925 0.05444999679178 0.00564999974519014 16 0.0143252714474995 -0.333420248508919 -0.0550587308298175 0.338239174783738 -2.86184409655839 3.9144010364992 -0.151526402375491 -24.9021180278288 14.2351726755194 0.869666282922963 8.48206056132579 -4.44188848254268 2.98019845803726 -5.31155476546564 -8.63358696370128 -28.816519064328 30.5473928326316 9.35333305696274 95.7810247953645
0.00974999997764826 0.05444999679178 0.00564999974519014 16 0.00844679514567059 -0.395168925213317 -0.026656340691649 0.396157024803992 -4.79654914514823 -9.53030290575039 0.213961069432622 -15.3048574654616 16.5226895850972 0.602520229046496 10.6885295888408 6.60514877660746 3.75376030534656 6.00262854756096 -10.4745685194082 -5.77455455971119 13.3825862788495 126.165108791465 -187.361364636991
0.0125500000193715 0.05444999679178 0.00564999974519014 16 -0.014850023984909 -0.424658655392316 0.00767410444891235 0.424987515923768 -13.0688926652452 -22.8237736762285 0.673767577218793 7.52072745372444 15.9205319825091 -0.486650978642713 18.3498053685905 18.7945069864931 3.95055036670097 19.2811579651358 -17.6760377913717 30.3445011299529 40.0623777789616 25.441283736017 -28.3639363056411
0.0153500000610948 0.05444999679178 0.00564999974519014 16 -0.066033459107081 -0.356927270774419 0.0764077891803269 0.370938869076223 -19.8054554744505 -34.8995380520653 1.19940862933258 38.0126117039944 13.0177859421932 -1.86017084710079 24.6160089139322 29.5595707277876 3.69821061002624 31.4197415748884 -23.4166002845997 72.9121497560597 82.7751104594344 -1037.94890010793 1069.1583754959
0.018150000102818 0.05444999679178 0.00564999974519014 16 -0.128635150591532 -0.208778422138809 0.147631460463551 0.28623500770709 -17.8203657156695 -43.096013121177 1.38008805330179 62.3012244498549 9.3037755918426 -2.58388201838721 22.2260305813532 36.5548745104569 3.0118462747135 39.1387565288441 -20.8459425280514 105.397237571032 114.345849378591 -2711.98808734739 2557.26664618981
0.0209500001445413 0.05444999679178 0.00564999974519014 16 -0.169570557276408 0.00172608385949085 0.201263852584331 0.263181100418721 -6.46114687431136 -44.3925632969889 0.736782378403605 70.2237529739921 5.54251967703987 -2.15082669760501 9.41513541224734 37.8049330349053 2.05775590914128 39.9557597325103 -8.67835303384374 114.616316270981 121.690905587524 -3168.40662690778 3154.08600803008
0.0237500001862645 0.05444999679178 0.00564999974519014 16 -0.165945127805074 0.196781045931275 0.194894171705431 0.322868864471003 6.94074979323545 -37.2915825734134 -0.689795523182482 58.3881407961407 1.43252999693533 -1.01169789081014 -7.06280104540636 31.750113405975 1.0408595154285 32.7618112967851 6.37300552222388 95.6797233695541 101.333908159642 -2216.4916226153 2223.2940482559