TITLE="DynamicStudio Exported Data"
VARIABLES= "X (m)[m]" "Y (m)[m]" "Z (m)[m]" "Status[-]" "U[m/s]" "V[m/s]" "W[m/s]" "Length[m/s]" "dU/dX[1/s]" "dU/dY[1/s]" "dU/dZ[1/s]" "dV/dX[1/s]" "dV/dY[1/s]" "dV/dZ[1/s]" "dW/dX[1/s]" "dW/dY[1/s]" "dW/dZ[1/s]" "Vorticity X[1/s]" "Vorticity Y[1/s]" "Vorticity Z[1/s]" "Vorticity Magnitude[1/s]" "Lambda-2[1/s²]" "Q-Criterion[1/s²]"
ZONE T="DynamicStudio Data" I=26 J=26 F=POINT
-0.0350500006899238 0.0600499968752265 0.00564999974519014 16 0.259232272108396 -0.218255067884844 -0.345065420351457 0.483639111199898 -11.7098334437042 11.8003784088332 -0.0309644232783246 -7.91247996076753 2.99715136169837 0.687692810180832 9.14500293743612 -13.6207798796341 -1.50088148609987 -14.3084726898149 -9.17596736071445 -19.7128583696007 26.029359439295 9.80078497584299 81.0008998035804
-0.0322500006482005 0.0600499968752265 0.00564999974519014 16 0.224308759172757 -0.240383574847753 -0.316200979271283 0.45615977660281 -16.9747355747298 10.6381653095038 -0.715311878005522 -12.2588075157607 3.13645132608743 0.559910449409221 13.9978063557331 -11.6344033155262 -0.632831902919275 -12.1943137649354 -14.7131182337386 -22.8969728252645 29.8236232023972 7.47955951191884 102.455117842192
-0.0294500006064773 0.0600499968752265 0.00564999974519014 16 0.158636020819346 -0.286873694490059 -0.25782527133512 0.417056080438591 -24.1143782966968 7.62274371602399 -1.88729821715568 -13.7592852898861 3.99889196175992 0.31678840248785 22.5742754748484 -7.59689242695894 0.80629717653315 -7.91368082944679 -24.4615736920041 -21.3820290059101 33.4392897079062 -1.00797450361272 37.2446493835825
-0.026650000564754 0.0600499968752265 0.00564999974519014 16 0.0791034944852194 -0.31514952857319 -0.177972532473505 0.370473764947951 -25.0516253067421 2.52927444535958 -2.87585595979127 -3.38266432584726 6.17377030790779 0.0336630818985744 27.8086963635668 -2.47852117052136 1.96702502560782 -2.51218425241994 -30.6845523233581 -5.91193877120684 31.3497024074792 34.2275865562622 -103.183267427164
-0.0238500005230308 0.0600499968752265 0.00564999974519014 16 0.00569450696309404 -0.300945483988229 -0.0907678806649831 0.314387372365486 -24.9674711263012 -3.71940054725036 -2.88063214849859 17.1060754233874 8.95751660351224 -0.385714460696543 30.2101995058621 2.69070491985157 2.07814206910022 3.07641938054811 -33.0908316543607 20.8254759706378 39.2194842544603 49.4787816532536 -105.230835182495
-0.0210500004813075 0.0600499968752265 0.00564999974519014 16 -0.0714605979124705 -0.2151184504769 -0.00088280684469888 0.226678945068824 -27.2962852162187 -9.2289452913679 -2.03482673560954 40.7837446395948 10.5226694039699 -1.23528204797889 30.3240536664302 6.81685591764051 1.37546349675324 8.0521379656194 -32.3588804020397 50.0126899309627 60.1099261422063 3.52288761181042 136.214601382118
-0.0182500004395843 0.0600499968752265 0.00564999974519014 16 -0.1536321636041 -0.0735820838261861 0.0836926356233501 0.189793630060294 -25.2266697808043 -12.2595245823146 -1.21930674976385 57.2321632438772 9.47851861419114 -2.43215560651423 24.1723538263809 8.71611874254362 0.99979001670254 11.1482743490579 -25.3916605761448 69.4916878261918 74.8205528227966 -46.4062270268943 497.455280022951
-0.015450000397861 0.0600499968752265 0.00564999974519014 16 -0.213985733191172 0.098779863936749 0.13531391379113 0.271766831666779 -14.3076998134016 -12.2839230573634 -1.17515374648318 58.212404350522 6.17162493440804 -3.35959410821176 12.4318233435579 7.69534334384494 1.71621602518574 11.0549374520567 -13.6069770900411 70.4963274078853 72.6436070524967 -472.335704980947 653.274210950528
-0.0126500003561378 0.0600499968752265 0.00564999974519014 16 -0.23165032863617 0.243921974590072 0.150600793362828 0.368565331259844 5.0773424005053 -9.83778104191257 -1.93377490274779 44.0177257485194 1.97710194546789 -3.27435388282506 -1.2663521941439 4.3161619782429 3.51939920740321 7.59051586106796 -0.667422708603885 53.855506790432 54.3918835467513 -311.96575466674 479.586378895912
-0.0098500003144145 0.0600499968752265 0.00564999974519014 16 -0.180759184360504 0.338829686613753 0.124209194429762 0.403617843067349 24.1488335731697 -5.62382988411725 -2.48565102460934 22.5505774371953 -1.84399259922725 -2.06748529496866 -11.5302557935739 0.0622925525397521 5.16908044081103 2.12977784750841 9.04460476896453 28.1744073213126 29.667120807617 5.97132893893943 169.054454929367
-0.00705000027269125 0.0600499968752265 0.00564999974519014 16 -0.0873825375239055 0.366734953608441 0.0801643395577169 0.385430350905358 33.6817198987167 -0.354634811399943 -2.11417872915352 2.12439729328744 -4.53880120195721 -0.523735000607616 -13.9486430835689 -3.67919177765424 5.74513109102672 -3.15545677704662 11.8344643544154 2.47903210468738 12.4962816150969 21.8496492465794 -16.108203254562
-0.004250000230968 0.0600499968752265 0.00564999974519014 16 0.0196527910232545 0.349208755161914 0.0408801005998005 0.352142257478121 33.0137840544416 4.80114156469658 -0.873815302562535 -12.4134143767387 -5.58847107154286 0.581094473177678 -12.5023779373672 -6.02958543221055 5.3003270019575 -6.61067990538823 11.6285626348047 -17.2145559414353 21.8005847174768 22.1362303444611 13.0440991240648
-0.00145000018924474 0.0600499968752265 0.00564999974519014 16 0.109237989584605 0.298171139742093 0.00611185324261897 0.317610329954244 24.4377399706073 8.61254710701947 0.60018355699485 -22.052573457112 -4.93665659083984 0.980542915950085 -11.4967213656601 -7.13529163199034 4.0168407217123 -8.11583454794042 12.096904922655 -30.6651205641314 33.9492488625303 15.1743689395843 161.517446262619
0.0013499998524785 0.0600499968752265 0.00564999974519014 16 0.164272410869598 0.228268112091076 -0.0275989001290873 0.282583536779603 14.9402743038904 10.4776521736449 1.54400320108159 -26.5066783344604 -3.32810791314775 1.00427990071767 -14.6327097913104 -7.55298244661753 1.86299044583604 -8.55726234733519 16.1767129923919 -36.9843305081054 41.2644336596556 -51.2163869769176 279.816524993095
0.00414999989420176 0.0600499968752265 0.00564999974519014 16 0.195481932163239 0.153264710531997 -0.0813429494462131 0.261380819344762 7.04794413891565 10.8641334624422 1.69872371757325 -28.5103029330273 -1.86052079422084 1.16676622193361 -19.0465504195307 -7.69493497321288 -1.20065667355407 -8.86170119514649 20.7452741371039 -39.3744363954695 45.3788760168928 -294.488246404217 331.73159217708
0.006949999935925 0.0600499968752265 0.00564999974519014 16 0.20313706835111 0.0713257327893128 -0.141291383998469 0.257517540933465 2.25649458497309 10.5470621953727 1.141229065662 -28.0413646342845 -1.14735932765626 1.63018856040314 -21.5009226480364 -7.54893652656894 -4.2903369378535 -9.17912508697208 22.6421517136984 -38.5884268296573 45.6726401336317 -338.877898895514 325.250110600819
0.00974999997764826 0.0600499968752265 0.00564999974519014 16 0.205429895718892 -0.00208267575750748 -0.206155895333892 0.291043008461472 0.00663252251698718 9.94441707302222 0.361465479936788 -26.8596554009092 -0.88694878644813 2.14310851118449 -19.6390632657545 -7.31190775788559 -6.03378097875079 -9.45501626907008 20.0005287456913 -36.8040724739314 42.9413347885461 -292.055446051028 295.178423742875
0.0125500000193715 0.0600499968752265 0.00564999974519014 16 0.200559512376785 -0.0781257726416559 -0.25233270862683 0.331661800933756 -1.45762278324943 9.16775912576991 0.0164778811974136 -25.1542897182735 -0.348323796582006 2.29653839169542 -14.0389955963072 -7.99960067590747 -5.94566213179737 -10.2961390676029 14.0554734775047 -34.3220488440434 38.491165885553 -248.098138400684 260.456464982582
0.0153500000610948 0.0600499968752265 0.00564999974519014 16 0.195479073921839 -0.141649919404493 -0.285472463016631 0.3738599940478 -5.62112562694304 7.80050964666925 0.277966114852214 -24.936153704466 0.90751649213634 1.88900725058741 -3.45548787902314 -9.8446793373742 -4.43798541730948 -11.7336865879616 3.73345399387535 -32.7366633511353 34.9758088832047 -194.223996943642 229.889551103521
0.018150000102818 0.0600499968752265 0.00564999974519014 16 0.166509508887927 -0.216105897212401 -0.271917332861922 0.385183347603212 -14.1860100657571 5.09222298368337 0.822692636026839 -24.9516018526364 2.84217408056513 1.23177138278131 8.9236305879449 -11.2002844433785 -2.61050554624756 -12.4320558261598 -8.10093795191806 -30.0438248363198 33.5083962397643 -22.3934893213251 122.807941758285
0.0209500001445413 0.0600499968752265 0.00564999974519014 16 0.110366630951564 -0.278245094033191 -0.233580996604481 0.379685669410738 -26.1838542682824 0.426428942012167 1.1881583917581 -21.3175740263646 5.24259217939502 0.732327159303569 19.4613484844722 -9.25726010925563 -1.6159000400144 -9.9895872685592 -18.2731900927141 -21.7440029683768 30.1081881728111 -7.07698711415225 -110.685674345611
0.0237500001862645 0.0600499968752265 0.00564999974519014 16 0.00952215353647867 -0.331379654729584 -0.154306735008334 0.365668860371789 -35.2593646506768 -5.92598525462238 1.1853602257329 -8.14605710116942 7.87796818258968 0.335334047680424 28.9079972859785 -2.80010003896092 -1.60369532652987 -3.13543408664134 -27.7226370602456 -2.22007184654704 27.9875735191461 79.2032746649848 -315.461570879887
0.0265500002279878 0.0600499968752265 0.00564999974519014 16 -0.100194557309151 -0.319540470836073 -0.0567136650829222 0.339649086004443 -37.0564710523343 -12.7413784221272 0.966204451930205 13.1431618139205 10.4355579609171 -0.350802829904368 34.0832217063801 5.751292712278 -2.29231439596119 6.10209554218237 -33.1170172544499 25.8845402360476 42.473307206633 43.2824017754334 -189.133241635934
0.029350000269711 0.0600499968752265 0.00564999974519014 16 -0.210773553450902 -0.255162453505909 0.0501280342061849 0.334733010512635 -30.3855512631894 -18.5665084919073 0.636642558681468 29.3112091758967 12.3320023760966 -1.66395212328173 36.0853588694599 12.7370392024822 -2.54017687924903 14.4009913257639 -35.4487163107784 47.8777176678041 61.2884645616509 -21.5024554958896 213.571679390789
0.0321500003114343 0.0600499968752265 0.00564999974519014 16 -0.280237623850505 -0.155956285512851 0.156030098086145 0.356652324149325 -17.1951904222849 -22.337414653704 0.391419911985495 27.016629725926 13.2437185898463 -3.21525447799696 25.2356172486321 16.1772089374394 -2.17908335730524 19.3924634154363 -24.8441973366466 49.35404437963 58.5587181831003 -293.127023838751 426.500104584195
0.0349500003531575 0.0600499968752265 0.00564999974519014 16 -0.311978303988775 -0.105728241815232 0.193938825655108 0.38225801675509 -10.8183804134943 -23.859690633599 0.309657352112183 18.4906214254619 13.4234618230781 -4.17242750639927 14.365189603073 16.7043351612869 -2.16562545292366 20.8767626676861 -14.0555322509608 42.3503120590609 49.2640450819919 -358.96988264305 355.568100686897
-0.0350500006899238 0.0572499968335032 0.00564999974519014 16 0.225313694477081 -0.226013351729586 -0.304847108025957 0.441338934777732 -10.4710629867001 19.9079746045285 0.550410107800918 -7.715895562438 4.39854456932219 1.02614048020465 7.5193265582204 -21.733913422477 -1.90108699168536 -22.7600539026817 -6.96891645041949 -27.6238701669665 36.4645588640165 -42.8384677318266 137.258136457643
-0.0322500006482005 0.0572499968335032 0.00564999974519014 16 0.194102871020635 -0.248661463192208 -0.282888451064937 0.423714908353792 -14.9043689700168 17.8120888805906 -0.134273518891753 -12.0349755127555 4.06275111207752 0.933104703296714 11.3209277333562 -19.1772681950642 -1.19553431909972 -20.110372898361 -11.455201252248 -29.8470643933461 37.7689818070488 -14.5653296533374 186.191338077988
-0.0294500006064773 0.0572499968335032 0.00564999974519014 16 0.135462774833043 -0.295861701829708 -0.236355109169769 0.402179123781546 -19.8369167597933 12.469401270134 -1.29112463649283 -14.4355954726386 4.22774907993406 0.755747525116231 17.9128757440496 -13.1848268047443 0.0851475869316553 -13.9405743298605 -19.2040003805424 -26.9049967427727 35.8749507733578 4.95876468336901 127.900798390114
-0.026650000564754 0.0572499968335032 0.00564999974519014 16 0.0721334520975749 -0.3318708850451 -0.171788411710101 0.380595293783318 -18.9895137266177 3.82765124332761 -2.21867905728001 -5.34049195588366 6.13692744400702 0.473178891417198 22.0306939765689 -4.45154843909333 1.25914862220378 -4.92472733051053 -24.2493730338489 -9.16814319921128 26.3882527185087 25.5062312326665 -61.2936254731553
-0.0238500005230308 0.0572499968335032 0.00564999974519014 16 0.0166650311152141 -0.326132555003084 -0.0985927318588559 0.341116832581306 -18.5346439557221 -6.5843958431726 -2.1994786718849 14.808986219264 9.4639288462987 -0.129154134643687 24.476227853305 5.33735023700399 1.50802224213289 5.46650437164768 -26.6757065251899 21.3933820624366 34.6287854931802 32.7558902058578 -37.0568824390831
-0.0210500004813075 0.0572499968335032 0.00564999974519014 16 -0.042431917587916 -0.247662327740836 -0.0218830455824112 0.252222052755422 -22.5338014298891 -15.9431918853755 -1.50396740927346 39.8983329848814 12.124712104983 -1.43213875028673 26.1999975904617 13.8199942995999 0.953382217366157 15.2521330498866 -27.7039649997351 55.8415248702569 64.1748637638874 -150.139938976477 412.163174919264
-0.0182500004395843 0.0572499968335032 0.00564999974519014 16 -0.117546172142029 -0.102096234393151 0.0575068865002444 0.165975256160238 -23.4145850415932 -21.5075673139339 -1.07085666841835 58.7507889711885 11.8395482956448 -3.25030391608774 22.8132438105366 18.6700727831117 0.783713178476601 21.9203766991994 -23.8841004789549 80.2583562851224 86.5584018100685 -816.583257171759 1062.41005422635
-0.015450000397861 0.0572499968335032 0.00564999974519014 16 -0.177768935759862 0.0790402154220889 0.11203497869273 0.224501640586087 -15.57900020256 -22.0402188389704 -1.54245823452045 61.5374452327661 8.09817957935044 -4.67591614347977 14.3307434095542 18.4705211991927 1.93060740834572 23.1464373426724 -15.8732016440746 83.5776640717364 88.1642899578947 -1255.18605694451 1324.16587213123
-0.0126500003561378 0.0572499968335032 0.00564999974519014 16 -0.204805458784104 0.237477929896559 0.140353262507512 0.343569616573155 1.4512818622611 -17.9582385833847 -2.69013971871356 47.8588221404405 2.33021663483198 -4.73328279442215 2.77300629248631 13.6586364351002 4.16585068503156 18.3919192295223 -5.46314601119987 65.8170607238253 68.5565032627005 -897.05637316306 950.705068760826
-0.0098500003144145 0.0572499968335032 0.00564999974519014 16 -0.16449298063914 0.342779190740548 0.125357295976331 0.400337315196561 18.9933743868123 -10.581369244715 -3.34467984009479 25.5653033026908 -3.25190744101955 -3.28343297224958 -7.06913108706953 6.57610971719999 5.88180258202695 9.85954268944957 3.72445124697473 36.1466725474058 37.6518798386687 30.3430170406067 299.28765476769
-0.00705000027269125 0.0572499968335032 0.00564999974519014 16 -0.0882513427734375 0.379877789757447 0.0936067042492019 0.40107062935687 28.108428851283 -1.60901736849638 -2.83842816976778 3.68538354719528 -6.92935002617957 -1.29197036517182 -10.587882510846 0.00138588137075021 6.04779909011232 1.29335624654257 7.74945434107823 5.29440091569166 9.47404317179332 44.3904365964548 -90.8076358709349
-0.004250000230968 0.0572499968335032 0.00564999974519014 16 0.00530717293421423 0.365824820950317 0.0580412093689665 0.370438588288123 28.297553676758 6.96191193125541 -1.39927308517927 -12.488956323003 -8.06490437729457 0.219245552833971 -10.5554334001005 -4.5228546771001 4.99235153983771 -4.74210022993407 9.15616031492121 -19.4508682542584 22.0149735895321 21.9362619420503 -54.0398706802934
-0.00145000018924474 0.0572499968335032 0.00564999974519014 16 0.0822600523630779 0.31272025089711 0.0263269855014126 0.324428392255547 21.3495484077217 13.495865357717 0.175463671709281 -23.1634140103206 -7.0957933713893 0.845166810983164 -9.96478494440089 -7.6331669023661 3.4319630966792 -8.47833371334926 10.1402486161102 -36.6592793680376 38.9693411329377 13.967248938281 218.236450991187
0.0013499998524785 0.0572499968335032 0.00564999974519014 16 0.134009889364243 0.237436492073854 -0.00717601864700555 0.272738397478932 13.6592693365438 17.243360199074 1.1497230496831 -27.8153723128223 -5.21244173238282 0.915628914951595 -13.2468716073242 -10.4117112360691 1.52083354606073 -11.3273401510207 14.3965946570073 -45.0587325118963 48.6401063752302 -315.131994108397 446.042054600891
0.00414999989420176 0.0572499968335032 0.00564999974519014 16 0.163951640923818 0.157273136314082 -0.0596857530747851 0.234898635772506 6.83515213651916 18.6083300725513 1.32137458753809 -29.2478600785879 -3.6553863147694 1.04156875867564 -17.9333054459226 -12.8634768847982 -1.04533817609099 -13.9050456434739 19.2546800334607 -47.8561901511392 53.4257235170478 -560.506782906501 553.039591812409
0.006949999935925 0.0572499968335032 0.00564999974519014 16 0.173236045837402 0.074115771438616 -0.11899313517623 0.222852510356936 2.64278924855549 18.5405178337219 0.823163885242562 -28.2865963841773 -2.91031790817089 1.51769623429466 -21.3313750947916 -14.1949355605323 -3.85329363875238 -15.712631794827 22.1545389800342 -46.8271142178992 54.1339913669206 -556.177881789029 556.89047216769
0.00974999997764826 0.0572499968335032 0.00564999974519014 16 0.177170875072479 0.000295689112099353 -0.186659754193 0.257354755622254 0.479014843423715 17.8827225566829 0.168897049379597 -27.1541869727011 -2.45735810022221 2.14512493984644 -19.5083854843688 -14.5741704847239 -5.76612229098243 -16.7192954245704 19.6772825337484 -45.036909529384 51.91390475937 -516.802972918061 530.379375362559
0.0125500000193715 0.0572499968335032 0.00564999974519014 16 0.174563180208206 -0.0759014447192506 -0.230988940225604 0.29931458985726 -0.828434822059956 17.0400382570041 -0.0407308156608389 -26.1282206674424 -1.36843724255007 2.4367303225411 -12.8496212075034 -15.6649916822397 -6.07063743981261 -18.1017220047808 12.8088903918425 -43.1682589244465 48.5308004382439 -481.9540320638 497.34393931185
0.0153500000610948 0.0572499968335032 0.00564999974519014 16 0.172659998337428 -0.143765472910212 -0.258752630734428 0.342684855426914 -4.10846419246111 15.3539386876996 0.336878990080778 -26.4735359130333 0.724262485613378 2.09131285815243 -1.8863258240402 -17.8085019055376 -4.89090110324185 -19.89981476369 2.22320481412097 -41.8274746007329 46.3732994162553 -443.338492632445 457.927849186905
0.018150000102818 0.0572499968335032 0.00564999974519014 16 0.151081400712331 -0.222829357151544 -0.238115027159741 0.359412406865782 -10.7915579610712 11.3495873695271 0.944554924726731 -26.7118153761048 3.37697235483944 1.39084128812021 8.52115664032298 -18.5233216442305 -3.16029106319055 -19.9141629323507 -7.57660171559625 -38.0614027456319 43.6193667746127 -283.535833533502 307.871838205172
0.0209500001445413 0.0572499968335032 0.00564999974519014 16 0.107807723283768 -0.293162309756347 -0.203907654414743 0.373021415725998 -20.4448173974422 3.77136307455816 1.25583552081489 -23.0578169724011 6.07728945806764 0.845004185842363 14.9107471346709 -14.2179211248482 -1.96676570883512 -15.0629253106906 -13.654911613856 -26.8291800469592 33.6623414528731 10.3112113485743 -15.7433554892026
0.0237500001862645 0.0572499968335032 0.00564999974519014 16 0.0260127580165863 -0.352610597750172 -0.143956894652608 0.381751862789673 -28.113428598797 -6.99613844928363 1.06075157471655 -9.95958768410245 8.75260431930556 0.506707641009691 20.9172369215911 -3.82894610075763 -1.53011160151853 -4.33565374176732 -19.8564853468745 -2.96344923481881 20.5392291741071 110.643593804152 -306.367984832097
0.0265500002279878 0.0572499968335032 0.00564999974519014 16 -0.064303979476293 -0.349678133752507 -0.0742799318267741 0.36321798864224 -30.1140256528382 -18.8127221781579 0.591843078584391 11.219369988057 11.6373968019929 -0.0292926259837371 25.884941727732 9.50962999186499 -1.60414743469543 9.53892261784873 -25.2930986491476 30.032092166215 40.4061683888098 29.4404654726593 -124.784000021813
0.029350000269711 0.0572499968335032 0.00564999974519014 16 -0.157522351344426 -0.289671795313867 0.0143511424355287 0.330043929595199 -25.1284151658912 -29.0705936516922 0.0721395226710451 27.7894034833682 14.4508461819918 -1.18391795106841 30.1009412371437 21.3637454394278 -1.23970864305581 22.5476633904963 -30.0288017144727 56.8599971350604 68.1409225867783 -189.487149282131 481.086122879555
0.0321500003114343 0.0572499968335032 0.00564999974519014 16 -0.2168084081014 -0.193693538330651 0.109111077703807 0.310529064488651 -14.4129812225421 -35.8529702281344 -0.269892958539035 26.22728454689 16.4580916489731 -2.64704779016835 22.5361660041471 28.9008910712432 -0.366745029615457 31.5479388614116 -22.8060589626862 62.0802547750243 73.2758268786154 -784.040321342291 784.950244406037
0.0349500003531575 0.0572499968335032 0.00564999974519014 16 -0.244625254472097 -0.142760063743529 0.15208768531001 0.321485015122869 -9.20601077260038 -38.6652106482102 -0.399006341388906 18.2716188494372 17.2605232756067 -3.55765883380227 13.6338450484995 31.6684150926369 0.0743910227950498 35.2260739264391 -14.0328513898884 56.9368294976474 68.4076001307297 -498.15616589703 666.280019243257
-0.0350500006899238 0.05444999679178 0.00564999974519014 16 0.145844703912735 -0.242791159573632 -0.219883858699662 0.358562597245105 -7.63798565826882 35.4966200762907 1.69060062167478 -6.95636265794218 3.86432895350837 1.54538290847772 4.64672668965436 -36.3580371066128 -2.44636192436223 -37.9034200150905 -2.95612606797958 -42.4529827342329 56.9882766295247 -172.168438811307 274.974733434355
-0.0322500006482005 0.05444999679178 0.00564999974519014 16 0.122421220938365 -0.262337404561489 -0.205473053474755 0.355002880090202 -9.98087623436412 31.7246539550988 0.978917312368558 -11.0722541248161 2.98422338798172 1.54493001397863 6.05044981086702 -32.6866711220144 -2.02308461996734 -34.231601135993 -5.07153249849847 -42.7969080799149 55.0372446568479 -251.881436414662 380.208816292307
-0.0294500006064773 0.05444999679178 0.00564999974519014 16 0.0843888060251872 -0.30507999370088 -0.181967034701568 0.365112687888229 -10.2361864585063 22.5431185286157 -0.159761023411444 -14.5944203020701 2.01532886161728 1.5418984636418 8.25231729296055 -23.7480761387562 -1.09351732814193 -25.289974602398 -8.412078316372 -37.1375388306859 45.7115156978131 -268.297386355144 355.2996357267
-0.026650000564754 0.05444999679178 0.00564999974519014 16 0.0578388563791912 -0.346137779006191 -0.154080491975571 0.383272087908871 -5.90140380277793 8.49602833029538 -0.968964773737049 -7.83519871483707 2.75968208592921 1.31776661020338 9.41848460940914 -10.2085866861583 -0.0674873359251436 -11.5263532963617 -10.3874493831462 -16.3312270451325 22.5269816397945 -52.3023499652021 73.0728128081655
-0.0238500005230308 0.05444999679178 0.00564999974519014 16 0.0450887389977772 -0.352685382639368 -0.124102542871066 0.376591840935186 -4.85372942336378 -7.8609490394025 -0.905222334670404 10.9569926880803 5.77938097377464 0.434828444545342 11.6840888839541 5.40686297425508 0.298528145521268 4.97203452970973 -12.5893112186245 18.8179417274828 23.1803109380126 -67.1170576198287 66.5827831066733
-0.0210500004813075 0.05444999679178 0.00564999974519014 16 0.0271163376172383 -0.289267652257307 -0.0859560096900289 0.302984332944888 -12.0081045250309 -22.7087644344161 -0.511191493886552 37.21192369126 9.65700053989531 -1.61691825050844 16.6983023953371 19.2180530761347 0.0794777053285207 20.8349713266431 -17.2094938892237 59.9206881256761 65.7324240809649 -797.173640164937 768.497727930105
-0.0182500004395843 0.05444999679178 0.00564999974519014 16 -0.0262917220592498 -0.147453678925134 -0.0289223936852068 0.152546212453405 -18.564166307321 -32.5205046449881 -0.805245452047687 59.5285498499863 11.850812764057 -4.45973984517402 19.0821453408682 27.6007682574159 0.459930817286276 32.0605081025899 -19.8873907929159 92.0490544949744 99.4807163512867 -1862.63991511588 1851.26840140118
-0.015450000397861 0.05444999679178 0.00564999974519014 16 -0.0833310377597809 0.0453502997701677 0.023534218321923 0.0977474857752876 -17.0419632268227 -35.3753088299612 -2.18627508132813 65.7956773849729 10.5561884493468 -6.6897486791843 17.2312096853712 28.6309520351863 2.40552455252254 35.3207007143706 -19.4174847666993 101.170986214934 108.904357421186 -2374.426738741 2361.24857924882
-0.0126500003561378 0.05444999679178 0.00564999974519014 16 -0.130607342720032 0.227139924718376 0.0741059795788169 0.272291240371029 -5.52962429505342 -31.0134199039696 -3.94898081256619 53.9909061173807 5.93383526471822 -6.9816106822867 10.1771620210708 23.1382147948773 5.23495226800081 30.119825477164 -14.126142833637 85.0043260213503 91.28245855845 -1819.2167007902 1845.47821303244
-0.0098500003144145 0.05444999679178 0.00564999974519014 16 -0.119856743812561 0.356196286158326 0.0888686525619899 0.386185280297576 8.00885545602917 -20.4248641545417 -4.70121190751915 31.1343493927415 -0.18517072642108 -5.17792178657394 1.48106545373941 14.2663892433841 6.83311228765908 19.4443110299581 -6.18227736125856 51.5592135472831 55.4495652500145 -663.872962789338 768.72501779084
-0.00705000027269125 0.05444999679178 0.00564999974519014 16 -0.0830502780278524 0.407504991710642 0.0865528856656359 0.424792971889417 15.6326240880964 -5.93689233679047 -3.95698102414849 6.92437959933679 -5.31577028345321 -2.56447963048967 -3.8753604633944 5.57839449095283 6.16762792077847 8.14287412144249 -0.0816205607540903 12.8612719361273 15.2225285905007 21.7451193992696 20.6113244080375
-0.004250000230968 0.05444999679178 0.00564999974519014 16 -0.0221616808573406 0.396702762034644 0.065274354578966 0.402647442398482 17.31411763463 8.95141916877234 -2.28185503048631 -12.1535320033794 -7.75463630410335 -0.507723900968142 -5.87135776518992 -1.2939626329385 4.20248945312365 -0.786238731970354 3.58950273470361 -21.1049511721517 21.4224570300655 2.30478652884131 0.64573062120509
-0.00145000018924474 0.05444999679178 0.00564999974519014 16 0.0265844694773356 0.338774536715549 0.0473487407225184 0.343098854548123 13.9565162409722 20.7939339511882 -0.690547215795592 -24.8809437065479 -7.341641933405 0.440292958464766 -5.37659716719095 -7.455913819793 2.53922262344227 -7.89620677825776 4.68604995139536 -45.6748776577361 46.5886638001256 -325.19047522235 431.275585840737
0.0013499998524785 0.05444999679178 0.00564999974519014 16 0.0641463740666708 0.256763393001456 0.029049181229008 0.266244346835003 10.2934852364305 27.8052553766939 0.213899123177736 -29.9744293989441 -5.34840679006236 0.608576243732813 -8.10720206300948 -14.4052268076146 1.45380658632824 -15.0138030513475 8.32110118618722 -57.7796847756381 60.2755919074008 -768.528670100818 796.082907725032
0.00414999989420176 0.05444999679178 0.00564999974519014 16 0.0873707115650177 0.171359268395851 -0.00651299887967373 0.192457941532547 6.18907177379406 30.4521499660551 0.421217343746513 -30.4205995241607 -3.57366567598115 0.722686194915551 -13.2901435537242 -21.7362925953986 -0.0351965572805298 -22.4589787903141 13.7113608974708 -60.8727494902157 66.3166553473788 -927.574187685064 925.469489665369
0.006949999935925 0.05444999679178 0.00564999974519014 16 0.0980544193585713 0.0872274173493497 -0.0570395570884769 0.143097178749386 3.35835639764003 30.4504754185251 0.1374443617702 -28.5371790663147 -2.89541195486946 1.22745954435168 -18.8151785386195 -27.5641923680349 -2.34196962807498 -28.7916519123866 18.9526229003897 -58.9876544848398 68.3206009653842 -897.259781637922 894.582613796293
0.00974999997764826 0.05444999679178 0.00564999974519014 16 0.10462520758311 0.0121196717520555 -0.125797588262164 0.164068137423947 1.33696739299219 29.534750996911 -0.203335299896314 -27.5271919371833 -2.72478411619857 2.00683799625166 -18.0607082943857 -31.1488311899985 -4.59967374895621 -33.1556691862502 17.8573729944894 -57.0619429340943 68.3684832423991 -871.868595486635 874.587594576218
0.0125500000193715 0.05444999679178 0.00564999974519014 16 0.104494806528092 -0.0672487311235939 -0.167336643758657 0.208430105247511 0.258498156050521 28.4325497689108 -0.15061254433019 -27.8595680429189 -1.70935263391209 2.48278744189746 -10.7244374791174 -33.6308709108518 -5.67933829908856 -36.1136583527493 10.5738249347873 -56.2921178118297 67.7111853471163 -873.688815599568 881.799652961562
0.0153500000610948 0.05444999679178 0.00564999974519014 16 0.106123232444127 -0.145399982814367 -0.186332033088159 0.25908091790322 -1.17548829528648 26.0987404629302 0.400144946785889 -29.2222813109738 0.678040411341443 2.21633934418637 -0.54267283551968 -34.9561974044603 -5.26898063432285 -37.1725367486467 0.942817782305569 -55.3210217739041 66.6565964013232 -836.311363580846 842.180693793214
0.018150000102818 0.05444999679178 0.00564999974519014 16 0.0980353530248006 -0.233641158602356 -0.161930902266953 0.300700413276633 -3.81136031256884 20.1899182354257 1.07034879605165 -29.468038386691 3.5302989506421 1.4528395862869 5.19602406161637 -32.2598980755813 -3.99985367234134 -33.7127376618682 -4.12567526556471 -49.6579566221167 60.1621353754906 -625.681543199885 623.93314746953
0.0209500001445413 0.05444999679178 0.00564999974519014 16 0.0837273677190145 -0.313595019810212 -0.145018406045468 0.355503089504002 -8.35775422516831 8.70088170961833 1.27267336261688 -25.2488603720701 5.77724825766916 0.854031510236448 3.77790581684124 -22.1073246984273 -2.71226419868158 -22.9613562086638 -2.50523245422436 -33.9497420816885 41.0619660513718 -201.127973919363 192.47385211472
0.0237500001862645 0.05444999679178 0.00564999974519014 16 0.0473264900843302 -0.378211983305519 -0.128054846623951 0.402097183182722 -12.8685449357737 -7.86356360183714 0.765659409208769 -12.0396418392667 7.37303095126455 0.658353807436566 3.91958157296872 -4.36580305606589 -1.60899585423573 -5.02415686350246 -3.15392216375996 -4.17607823742957 7.25458521552184 129.616690118086 -180.839231684667