TITLE="DynamicStudio Exported Data"
VARIABLES= "X (m)[m]" "Y (m)[m]" "Z (m)[m]" "Status[-]" "U[m/s]" "V[m/s]" "W[m/s]" "Length[m/s]" "dU/dX[1/s]" "dU/dY[1/s]" "dU/dZ[1/s]" "dV/dX[1/s]" "dV/dY[1/s]" "dV/dZ[1/s]" "dW/dX[1/s]" "dW/dY[1/s]" "dW/dZ[1/s]" "Vorticity X[1/s]" "Vorticity Y[1/s]" "Vorticity Z[1/s]" "Vorticity Magnitude[1/s]" "Lambda-2[1/s²]" "Q-Criterion[1/s²]"
ZONE T="DynamicStudio Data" I=26 J=26 F=POINT
-0.0350500006899238 0.0600499968752265 0.00564999974519014 16 0.28457664390405 -0.0373423832356154 -0.443311637125444 0.528113176745524 3.8214479550598 20.8046107039824 0.764331825159621 -4.52270073992821 3.06388047534624 -4.53810324617464 -1.33976731975763 -11.5687611069481 -11.2379233120468 -7.03065786077347 2.10409914491726 -25.3273114439106 26.3691123882421 -1.72410513208584 -23.05151041014
-0.0322500006482005 0.0600499968752265 0.00564999974519014 16 0.295105487306913 -0.0497261715276788 -0.444498576441159 0.535853454996483 3.84520910981907 20.6272366206523 0.813167612886238 -7.05647672263888 2.94916812445322 -3.78298823451421 -0.414164875579368 -11.7989210023935 -9.81890891943494 -8.01593276787933 1.22733248846561 -27.6837133432912 28.8470017098818 -72.5217273203414 45.8840181081299
-0.0294500006064773 0.0600499968752265 0.00564999974519014 16 0.305553244749705 -0.0748449526535114 -0.442848877158637 0.543212371283502 0.291100297732803 19.9221513384638 1.00463395476059 -12.7717985090638 2.91496909503682 -2.40813812086307 9.08388014410312 -12.2840144707633 -7.1954710448983 -9.87587634990023 -8.07924618934253 -32.6939498475276 35.0956052704491 -238.074597404958 193.513493691753
-0.026650000564754 0.0600499968752265 0.00564999974519014 16 0.295178676446279 -0.118503173480664 -0.388806230984628 0.502338270895258 -8.41542518718254 18.402821320064 1.36751571908986 -18.0250221408526 3.26343032383507 -1.13871724513032 23.6316679647013 -12.1152571914132 -4.09611989286939 -10.9765399462829 -22.2641522456114 -36.4278434609166 44.0813416721991 -238.187014889718 279.238766949117
-0.0238500005230308 0.0600499968752265 0.00564999974519014 16 0.255658982594808 -0.172639899795953 -0.303778579221883 0.432952047664675 -18.0218223930884 16.092072589577 1.82763091743451 -21.2079020173358 4.2229718366586 -0.258132139614154 32.7753409392439 -11.2135825745197 -1.69575611573011 -10.9554504349056 -30.9477100218094 -37.2999746069128 49.6897449732036 -73.6888399991319 225.77712305272
-0.0210500004813075 0.0600499968752265 0.00564999974519014 16 0.190261609156926 -0.233581480934396 -0.200342404313075 0.361796720715421 -28.1043184093921 12.8351398974624 2.16327734497654 -19.3064315513658 5.65595045232252 0.249101315353143 37.7717976099039 -9.23006840414902 -0.453125597854093 -9.47916971950216 -35.6085202649273 -32.1415714488282 48.8968505041889 -4.440104142474 19.6043957458704
-0.0182500004395843 0.0600499968752265 0.00564999974519014 16 0.0913742784659068 -0.277215533797862 -0.0850679732583619 0.304030049531759 -35.5787026247985 8.57211396570167 2.51232358239087 -9.06156316784363 7.04996465190911 0.573923449828453 38.0002210197577 -6.30434423352092 -0.599436505541791 -6.87826768334937 -35.4878974373669 -17.6336771335453 40.21999502858 27.0791932222181 -247.901317098063
-0.015450000397861 0.0600499968752265 0.00564999974519014 16 -0.0169042865435283 -0.281414680855426 0.016312221630166 0.282393459695898 -40.1290015738807 3.24139078122101 2.82901881984582 7.63632999091883 7.58208390425112 0.617905158234247 41.2112687805827 -2.88566502203384 -1.50434442068171 -3.50357018026809 -38.3822499607369 4.39493920969783 38.7915919589992 64.693533733738 -394.856400223162
-0.0126500003561378 0.0600499968752265 0.00564999974519014 16 -0.144471859931946 -0.235095283100357 0.151404025555821 0.314746071306284 -33.5484844082985 -2.88273511623289 2.91935583099499 26.8922736524696 6.30047999764652 0.385883922745104 38.974981043317 1.32091339859534 -1.58705413253251 0.935029475850237 -36.055625212322 29.7750087687025 46.7700068072311 6.79313798912245 -204.895752764916
-0.0098500003144145 0.0600499968752265 0.00564999974519014 16 -0.216310255527496 -0.135688850907609 0.243646831237323 0.352938194701263 -18.6785813495712 -8.87639143892396 2.63882630253451 43.4290770690166 2.89775167907196 0.10991295300356 31.3807677848502 5.99140757708146 -0.205543605936236 5.8814946240779 -28.7419414823157 52.3054685079405 59.97126991336 7.08531550838989 251.144317338691
-0.00705000027269125 0.0600499968752265 0.00564999974519014 16 -0.260622603098551 -0.00062134674556243 0.339442132205198 0.427955007487533 1.0145243993082 -13.4461775074144 2.11154571766243 52.9540206721559 -2.02403482109943 -0.206522489602094 15.4656394161165 10.1769298620155 1.76915392717299 10.3834523516176 -13.3540936984541 66.4001981795704 68.5210494631513 -712.376265058805 677.635109862409
-0.004250000230968 0.0600499968752265 0.00564999974519014 16 -0.217438273429871 0.150093106296214 0.33973081576017 0.430377009709953 17.9499307879903 -14.8856798127062 2.09696175037192 51.1520052172654 -6.77859913586329 -0.61000740529532 -8.31075416177062 12.2040165195619 1.96449212735629 12.8140239248573 10.4077159121425 66.0376850299716 68.0697848077428 -484.086375002368 686.574853241759
-0.00145000018924474 0.0600499968752265 0.00564999974519014 16 -0.157964983781179 0.277354575182156 0.290886581361992 0.431848931562797 27.0845693319102 -12.4270335944628 2.66003135235017 36.0755918517887 -9.63983241815665 -1.24950718178859 -34.1962434658552 11.2266702397669 -0.657335051523934 12.4761774215555 36.8562748182053 48.5026254462515 62.1815460704265 0.175970644028949 280.745730210659
0.0013499998524785 0.0600499968752265 0.00564999974519014 16 -0.0562025475502015 0.347526083735477 0.136557097206824 0.377598922171667 30.4247778835212 -6.59719436754706 3.38447752376821 12.8124439106657 -10.1033558096599 -1.90360848758565 -55.2166889980222 7.7708429712315 -4.72651714008424 9.67445145881715 58.6011665217904 19.4096382782127 62.4854045904696 72.1694307718543 -117.243437841685
0.00414999989420176 0.0600499968752265 0.00564999974519014 16 0.0273324608802796 0.34938780389862 -0.0342581410966037 0.352125717837063 27.9239266497731 0.6482380981391 3.63368204450751 -9.6507135938151 -8.71876970955025 -2.23319331538294 -57.0384531987295 3.34027040370571 -7.6681798522124 5.57346371908865 60.672135243237 -10.2989516919542 61.7919080362052 66.5492533386826 -169.755850355766
0.006949999935925 0.0600499968752265 0.00564999974519014 16 0.113074211676915 0.296926377735411 -0.193404708402231 0.371962944893144 24.1044443470665 7.03486210221424 3.0895381232479 -23.9233895326545 -6.74471241429853 -2.05204085444613 -41.0945962473227 -0.538478017242699 -7.63213804217358 1.51356283720343 44.1841343705706 -30.9582516348687 53.9716772652718 17.7664932686011 -0.913326258681266
0.00974999997764826 0.0600499968752265 0.00564999974519014 16 0.171131714185079 0.21984119846796 -0.267179681997901 0.386006733900138 18.8776851119911 11.4102726609822 2.12562102317949 -29.7504281501518 -5.07943621589082 -1.44686673093126 -17.4525186448944 -3.28979215370665 -5.12636458117337 -1.84292542277539 19.5781396680739 -41.1607008111341 45.6169181142284 2.75070976100123 205.175194841123
0.0125500000193715 0.0600499968752265 0.00564999974519014 16 0.222755805253983 0.134305240942481 -0.288880339652145 0.388728564883656 12.06473849436 13.8889010522572 1.06702746918688 -30.1471483464866 -4.06144414827793 -0.818244945763323 0.262177816072992 -5.09352393172827 -2.09048254873519 -4.27527898596494 0.804849653113885 -44.0360493987438 44.2504173993936 -260.641873958892 348.532250525952
0.0153500000610948 0.0600499968752265 0.00564999974519014 16 0.240034737984339 0.053209797636761 -0.263409684543731 0.360322938369435 3.51565840820948 15.2895315799826 0.167789768943078 -27.6771277101192 -3.46148281144903 -0.514851058638594 7.69279323202667 -6.67769302129126 -0.277379043940304 -6.16284196265267 -7.52500346308359 -42.9666592901018 44.0538319414752 -405.631131803954 406.257110520697
0.018150000102818 0.0600499968752265 0.00564999974519014 16 0.242842793265978 -0.0195053836796433 -0.247108926032088 0.347009947347975 -3.82526122522618 16.0578844538646 -0.40212602952786 -23.8413985415391 -2.66183775678586 -0.645903233697313 4.99315372367606 -8.65899432860614 -0.598225272425383 -8.01309109490883 -5.39527975320392 -39.8992829954037 41.0520578784785 -372.615421854205 393.320398957522
0.0209500001445413 0.0600499968752265 0.00564999974519014 16 0.218713331619899 -0.0790261652192566 -0.242327829213658 0.335862223283508 -9.32625601037292 16.0128978548039 -0.671215570094428 -20.7439267266162 -1.13002365901952 -0.996715222810854 -1.95631428903077 -10.5509474172553 -2.54512224663416 -9.55423219444443 1.28509871893635 -36.7568245814201 37.9999866427879 -276.890209113273 357.492381209585
0.0237500001862645 0.0600499968752265 0.00564999974519014 16 0.189032150904338 -0.13260059329293 -0.264913464992618 0.351418860267277 -11.2789759692907 14.8789660236725 -0.557678243675472 -20.1991015231304 1.34159897932004 -1.37959888079262 -11.5202594667347 -11.2218920743635 -5.27902454896639 -9.84229319357084 10.9625812230593 -35.0780675468028 38.0462842495617 -226.362349029787 315.963231893319
0.0265500002279878 0.0600499968752265 0.00564999974519014 16 0.153018609881401 -0.18746584653607 -0.312312865808478 0.395091716867142 -13.2513696945132 12.9459701796382 -0.0208342592601511 -21.8728708714402 4.3619414289617 -1.78479388167914 -15.9375085581506 -10.2405224817993 -8.09399760130224 -8.4557286001202 15.9166742988904 -34.8188410510784 39.2070345606004 -179.610427428848 278.705578586104
0.029350000269711 0.0600499968752265 0.00564999974519014 16 0.112017903725306 -0.250002300593769 -0.35591420635387 0.449137042940898 -12.8527435574291 10.9222291627336 0.824322681121327 -21.5140692136535 7.24547156494653 -2.26395490908925 -14.4934411608377 -8.16000435502692 -10.2105523167139 -5.89604944593767 15.317763841959 -32.436298376387 36.3525891863149 -118.964003125962 192.584140589443
0.0321500003114343 0.0600499968752265 0.00564999974519014 16 0.0796038420995075 -0.304031523383067 -0.392924377584908 0.503151572975897 -9.14332916906199 9.5570302903432 1.72241289735976 -15.0269087369194 9.2620410112546 -2.68507072713327 -8.26351616577746 -6.22662078129273 -11.3133638717599 -3.54155005415946 9.98592906313722 -24.5839390272626 26.7699722475816 -41.6661585286607 55.097971591764
0.0349500003531575 0.0600499968752265 0.00564999974519014 16 0.0608567361036936 -0.332120011760853 -0.400749306750173 0.524029819191588 -6.71313894892628 9.06659584562717 2.1644403372272 -10.2390445848003 10.1098439438213 -2.87571665231473 -3.44502191454305 -5.27837860146405 -11.4305502331226 -2.40266194914932 5.60946225177026 -19.3056404304275 20.2471381588827 20.7370929827337 -21.5842919693198
-0.0350500006899238 0.0572499968335032 0.00564999974519014 16 0.22629860162735 -0.046828974536135 -0.411216007371355 0.471701828142566 3.92027959772101 33.5219094294687 0.822501759250572 -4.81387616934335 1.61679140423666 -4.58255705763714 -1.49217537474577 -20.4840395191169 -11.4636241006763 -15.9014824614797 2.31467713399634 -38.3357855988121 41.5673830326794 -37.7871579921844 11.591731727599
-0.0322500006482005 0.0572499968335032 0.00564999974519014 16 0.237259971698125 -0.0582395242960289 -0.414248147453181 0.480921681803613 4.21174326400912 33.181556088835 0.978579774463327 -7.54520820341348 2.24081881178065 -3.84334170689706 0.108510576759786 -20.8791923213115 -10.1582992554886 -17.0358506144145 0.870069197703541 -40.7267642922485 44.1548021882309 -141.594167177531 113.900389298841
-0.0294500006064773 0.0572499968335032 0.00564999974519014 16 0.249545945723852 -0.0831237317755586 -0.407105220511245 0.484682777060436 1.27711830206371 32.0640323577102 1.26870323210759 -13.5309739297173 3.50012538968092 -2.50242283665873 9.34073942069328 -21.4970292274509 -7.45956898771803 -18.9946063907922 -8.0720361885857 -45.5950062874275 50.0485508134003 -425.206552454188 337.046198066356
-0.026650000564754 0.0572499968335032 0.00564999974519014 16 0.243547469774882 -0.127102331668902 -0.355635421845751 0.449385053179147 -6.62888894179983 29.7979214474632 1.60746277531224 -19.0127471974229 5.130872123972 -1.26960651325964 22.7262349350654 -20.9047079008553 -4.13258036173895 -19.6351013875956 -21.1187721597532 -48.8106686448861 56.6923373799105 -470.05269141921 475.646710897972
-0.0238500005230308 0.0572499968335032 0.00564999974519014 16 0.210476209322612 -0.184286106820024 -0.270909283067352 0.389427070848656 -15.5523273727731 26.3121397585942 1.9549809725834 -22.4029412328515 6.9937892251168 -0.406754115553171 31.2424844957237 -18.7669766333304 -1.46920477389333 -18.3602225177772 -29.2875035231403 -48.7150809914457 59.7328615547871 -301.186387272584 424.561858513787
-0.0210500004813075 0.0572499968335032 0.00564999974519014 16 0.153247389396032 -0.249444029782462 -0.172377770094511 0.339736930541219 -24.5727929217271 21.3967634813189 2.23889023809442 -20.4969425552003 8.90167990591225 0.124516851398686 35.0632532612856 -15.1867472313155 -0.217308784778533 -15.3112640827142 -32.8243630231912 -41.8937060365192 55.380106727625 -39.1285801403614 146.622795991619
-0.0182500004395843 0.0572499968335032 0.00564999974519014 16 0.0680198955535889 -0.29759632511142 -0.0694063927947233 0.313061537515739 -30.9657394943158 14.6732835070914 2.65637604730195 -9.92715436945652 10.4931107114974 0.464393364272631 34.817888216695 -10.2711114698439 -0.570792229885139 -10.7355048341165 -32.1615121693931 -24.600437876548 41.8902789771476 44.296013728441 -255.296933127155
-0.015450000397861 0.0572499968335032 0.00564999974519014 16 -0.0273605485757191 -0.304260454069202 0.0267201255758603 0.306654510222092 -33.9467442015227 5.65497073241094 3.13558563175138 7.80217396158322 11.0154848583319 0.486381361317634 36.5948430560814 -3.61191267944226 -1.53401254187538 -4.09829404075989 -33.45925742433 2.14720322917228 33.7776316982035 144.287673808055 -495.873569786877
-0.0126500003561378 0.0572499968335032 0.00564999974519014 16 -0.133690561056137 -0.254805324965273 0.145860541694953 0.322605358557027 -26.6970183092658 -5.33737743982843 3.3563416217174 28.8083333886582 9.36078245368041 0.230109157541694 33.0995016926527 5.47779958884696 -1.44299984670741 5.24769043130527 -29.7431600709353 34.1457108284866 45.5864387055045 -0.24676541587128 -183.481573202914
-0.0098500003144145 0.0572499968335032 0.00564999974519014 16 -0.191915885607401 -0.145261703529395 0.230042642572274 0.332944870905635 -12.5575225170822 -16.3120169304531 3.00715023694283 47.0856736494135 4.92236890995313 -0.0644148080629801 25.6441235812515 15.5330917502812 0.361789870583892 15.5975065583442 -22.6369733443087 63.3976905798665 69.1012441558691 -567.567945891231 627.372054911655
-0.00705000027269125 0.0572499968335032 0.00564999974519014 16 -0.218578448295593 0.00410422670771368 0.309242108239947 0.37871369693327 4.17934806022876 -24.0746374010325 2.1633833324405 57.6223034487682 -1.7619149469989 -0.377766469369198 12.0111741959828 23.3290270790356 2.90170337848923 23.7067935484048 -9.84779086354233 81.6969408498007 85.6351632768607 -1368.39452636166 1369.7152298921
-0.004250000230968 0.0572499968335032 0.00564999974519014 16 -0.175132180054983 0.171008946850585 0.307553159086965 0.393070332202939 16.7359043079799 -25.5456004801788 1.64913458154894 54.8453542388887 -8.53869197364659 -0.777797925612532 -7.83162189991362 25.6286644847968 3.66630300414605 26.4064624104093 9.48075648146256 80.3909547190675 85.1462952872074 -1293.97611195572 1321.05756057851
-0.00145000018924474 0.0572499968335032 0.00564999974519014 16 -0.11998184521993 0.304780047945678 0.259064586304788 0.417613434512612 22.1074427421204 -20.1739961497931 1.80752663175402 37.6358643782527 -12.8385690943029 -1.43843178394805 -30.4526694387248 21.7317402890745 1.41017514555293 23.1701720730225 32.2601960704788 57.8098605280458 70.1395544516168 -348.868159197917 574.812224134176
0.0013499998524785 0.0572499968335032 0.00564999974519014 16 -0.0386294806003571 0.377776581871828 0.117707184188912 0.397570577120462 23.33262407355 -10.0479954923373 2.38967260244126 12.1237486569773 -13.5556385699108 -2.07554798257369 -49.7120111900646 13.6354308768317 -2.73929387299507 15.7109788594054 52.1016837925059 22.1717441493146 58.7622884965998 105.687997634001 -74.1548612585048
0.00414999989420176 0.0572499968335032 0.00564999974519014 16 0.0247199591000875 0.37307307892673 -0.0421646846209963 0.376261158275696 21.3452019815057 1.20773883067248 2.7060809363725 -11.5005178230496 -11.4786677870245 -2.34379689867827 -51.9586684077806 4.52782580043391 -6.17647138285351 6.87162269911218 54.6647493441531 -12.7082566537221 56.5416112836813 106.919268278027 -140.848560418655
0.006949999935925 0.0572499968335032 0.00564999974519014 16 0.0905696487426757 0.316042225446242 -0.189683528624106 0.379559469081825 19.0884324937654 10.6736006842159 2.26858714319387 -25.5156240122576 -8.69464817660416 -2.07034134411299 -37.3534060515065 -3.00023304601498 -6.72327836298686 -0.929891701901996 39.6219931947004 -36.1892246964735 53.6696099056999 -48.03572470422 115.024022135966
0.00974999997764826 0.0572499968335032 0.00564999974519014 16 0.137351038455963 0.23308402487688 -0.25723886576908 0.373316627649908 15.706747175558 17.4020802876942 1.35104872401837 -30.6375397930277 -6.77039412026112 -1.37241351640457 -15.1608923866841 -8.11594478788686 -4.54218583181056 -6.74353127148229 16.5119411107025 -48.0396200807219 51.2437753366481 -301.892257196145 395.570154322762
0.0125500000193715 0.0572499968335032 0.00564999974519014 16 0.182280789613724 0.145424563719813 -0.273341884838107 0.359291491691843 10.0069692138549 21.8045780408741 0.333565060578037 -30.2472453039993 -6.12251620907688 -0.678607255783528 2.0663030008351 -11.6104523048521 -1.53747975692994 -10.9318450490686 -1.73273794025707 -52.0518233448734 53.2155985635072 -578.154758158706 583.720138012715
0.0153500000610948 0.0572499968335032 0.00564999974519014 16 0.19644713918368 0.0629680258121031 -0.244965092921241 0.320256690044156 2.26433305982725 24.6467958271862 -0.480635953734767 -27.8866835501298 -6.01285052382995 -0.317950524302168 9.75100215079307 -14.9447300451929 0.30013718208752 -14.6267795208908 -10.2316381045278 -52.533479377316 55.4832907544395 -665.637542648355 672.512227529036
0.018150000102818 0.0572499968335032 0.00564999974519014 16 0.196883874734243 -0.0116252269490118 -0.222748204678586 0.297514989066968 -4.22870349637848 26.0454458220934 -0.907608826557949 -24.6703250571389 -5.24091651977389 -0.410910762912837 7.4194561563762 -18.7688076275545 -0.0860811049170964 -18.3578968646417 -8.32706498293415 -50.7157708792324 54.5751024222367 -615.345574093634 664.548710889261
0.0209500001445413 0.0572499968335032 0.00564999974519014 16 0.172728506326675 -0.0748680468702999 -0.211734876762002 0.283323171268144 -8.5823951902392 25.7200228061322 -0.988388419324333 -22.5970339097131 -3.06948752033262 -0.754207472660205 -0.395434709880149 -22.1253386098556 -2.24426956395172 -21.3711311371954 -0.592953709444185 -48.3170567158453 52.8357342133802 -544.394454457934 616.611809367303
0.0237500001862645 0.0572499968335032 0.00564999974519014 16 0.146907309293747 -0.136089379331097 -0.233319396750691 0.307473604705767 -9.47091960914837 23.5460829029 -0.681657143245997 -22.7495742328954 0.510218159749398 -1.16425350255266 -11.7039786655924 -23.2788507711125 -5.14501317919065 -22.1145972685598 11.0223215223464 -46.2956571357954 52.4769935660161 -496.978948451416 541.8534685638
0.0265500002279878 0.0572499968335032 0.00564999974519014 16 0.116819515625636 -0.199465294506711 -0.282610682292167 0.365105465159454 -10.8628042374914 19.9937930337472 -0.0374223055684433 -24.5212663893674 4.70230557089439 -1.61234906026726 -17.8629093895923 -21.4968539383345 -7.78632455107087 -19.8845048780672 17.8254870840239 -44.5150594231146 51.9108085033551 -404.63509183418 451.831638747771
0.029350000269711 0.0572499968335032 0.00564999974519014 16 0.0821370772520702 -0.271156685297998 -0.33329024365618 0.437441234862131 -10.5566709665859 15.9837353248503 0.778986737054931 -23.7122558247681 8.58771098794128 -2.12273399965283 -17.099538979023 -17.658861330965 -9.39683266566338 -15.5361273313122 17.8785257160779 -39.6959911496184 46.225368009198 -256.544705387411 282.690017979133
0.0321500003114343 0.0572499968335032 0.00564999974519014 16 0.0533644262949626 -0.330730428122139 -0.374360705174234 0.502370695461224 -7.67184855840357 12.6712484141454 1.5656746247133 -16.2281837238143 11.3149827705148 -2.54428249897215 -10.113013984255 -13.8477268855469 -9.96051151834878 -11.3034443865748 11.6786886089683 -28.8994321379597 33.1562482877989 -61.4983139244187 63.138192944958
0.0349500003531575 0.0572499968335032 0.00564999974519014 16 0.0352686206499735 -0.361129711604056 -0.385315374813314 0.529269763233557 -5.81046548247828 11.062354796243 1.92777446540345 -10.959519419773 12.4738150582117 -2.71525540326834 -4.69810722660847 -11.8966146896572 -9.84809272095191 -9.18135928638882 6.62588169201191 -22.021874216016 24.7621204772194 38.5285515004981 -40.1073202361608
-0.0350500006899238 0.05444999679178 0.00564999974519014 16 0.0964976608753205 -0.0448871837292487 -0.328026592273576 0.344859541054277 3.5599884593583 45.7038207314299 1.19292668048485 -5.50307493532412 0.139840239275761 -4.14370517321789 -0.770154877475756 -30.4842460302632 -11.3691975146768 -26.3405408570453 1.9630815579606 -51.206895666754 57.6179134095527 -153.224319050294 84.5463070326119
-0.0322500006482005 0.05444999679178 0.00564999974519014 16 0.108508781592051 -0.0611299232368166 -0.331640708465905 0.354254968503334 4.32854366971901 46.0474707124747 1.41041235936634 -8.71939822657845 0.919735776890336 -3.52668793923175 1.67907228088184 -31.9003284312806 -10.1995944542919 -28.3736404920489 -0.268659921515496 -54.7668689390532 61.6809985839471 -316.78857704387 237.086341172083
-0.0294500006064773 0.05444999679178 0.00564999974519014 16 0.125329806009928 -0.0944140077589933 -0.318685456876022 0.355221037608811 2.47055149488867 45.8547608450646 1.71177423713658 -15.2020890921416 2.50573438457933 -2.41121423242302 10.6374104227154 -34.1497242312853 -7.43314774486429 -31.7385099988623 -8.92563618557878 -61.0568499372062 69.3897609343029 -685.847763564264 565.738091121118
-0.026650000564754 0.05444999679178 0.00564999974519014 16 0.126840173403422 -0.147090496668049 -0.270619731858994 0.333105213214229 -3.55874438981194 43.8572940104988 1.903247308186 -20.8128899995947 4.34624561488431 -1.38137663610458 21.7706161759601 -35.0830978007977 -3.84992552689397 -33.7017211646931 -19.8673688677741 -64.6701840100935 75.5827431037685 -820.296408082431 804.400199394173
-0.0238500005230308 0.05444999679178 0.00564999974519014 16 0.107563109000524 -0.212400427137812 -0.196103135818072 0.308448056800274 -10.4554767448526 39.1760805194593 2.03101418192096 -24.2650890528555 6.1456191359154 -0.61780453418684 28.2897169360821 -33.3124427495756 -0.919815389058168 -32.6946382153888 -26.2587027541612 -63.4411695723148 76.0476221526338 -745.760748719038 812.282583466344
-0.0210500004813075 0.05444999679178 0.00564999974519014 16 0.0664881857236226 -0.284048848374708 -0.11097094661401 0.312120134076971 -16.8175535697535 31.2393668168404 2.21329420345228 -22.3361608659668 7.93909458589057 -0.0688803760466513 29.5529079839047 -28.429559314568 0.356090816938824 -28.3606789385214 -27.3396137804524 -53.5755276828072 66.4990207297027 -332.869659490364 493.722317693253
-0.0182500004395843 0.05444999679178 0.00564999974519014 16 0.00806666016578683 -0.337508065779305 -0.0285039094742388 0.33880560551389 -20.2839110690245 19.5257790138031 2.70875165016611 -11.5712913515786 9.83101907319404 0.310499819863682 26.9203201576379 -19.9372817396016 -0.138518392215649 -20.2477815594652 -24.2115685074718 -31.0970703653816 44.3080183824702 4.34132632828146 -38.7550602313158
-0.015450000397861 0.05444999679178 0.00564999974519014 16 -0.0542649519443512 -0.346703382586905 0.0449219294892585 0.353787931190088 -19.9282489230993 3.84376808476888 3.4017667199621 7.33415665915923 11.4207992109056 0.342978182197153 24.7296574451479 -6.83372686001264 -1.11193666976436 -7.17670504220979 -21.3278907251858 3.49038857439035 22.7720624987852 149.320929792467 -328.108288046558
-0.0126500003561378 0.05444999679178 0.00564999974519014 16 -0.110414838790894 -0.292360941813949 0.11900804348501 0.334408838605813 -11.5906821640207 -14.2887151666603 3.8126321384841 30.8040566169193 11.54779568972 0.0938997862857859 18.3774234633592 10.6638247119251 -0.867483816038031 10.5699249256394 -14.5647913248751 45.0927717835796 48.5511537081952 -231.362829832365 235.273078584253
-0.0098500003144145 0.05444999679178 0.00564999974519014 16 -0.123123435974121 -0.167027710004089 0.158936933705894 0.261378241808906 0.0185460499902681 -30.9964803883532 3.39589003912488 52.0929993832847 8.98316027131492 -0.201457412797784 12.1119308383321 28.8628035227038 1.31130263851275 29.0642609355015 -8.71604079920721 83.0894797716379 88.4565558885365 -1509.41816364853 1591.3540375795
-0.00705000027269125 0.05444999679178 0.00564999974519014 16 -0.111629513104757 0.00757457324163018 0.199020908518772 0.22831523029232 9.60386093764 -41.2344413622575 2.0627846633973 64.6603070289514 3.62211481421253 -0.530701036518834 4.90479376653979 41.7054413663119 4.47449498058176 42.2361424028307 -2.84200910314249 105.894748391209 114.042388951004 -2657.13131715727 2772.21307534452
-0.004250000230968 0.05444999679178 0.00564999974519014 16 -0.0686930004755657 0.203199814346541 0.194425869775975 0.289500106568114 12.8781857030908 -41.3302725556334 0.709542390916741 61.0724610342021 -2.86621853463635 -0.964500218588402 -5.54384801422497 44.224410504305 6.05920163411813 45.1889107228934 6.25339040514171 102.402733589835 112.104693882779 -2574.74818477471 2594.48234223326
-0.00145000018924474 0.05444999679178 0.00564999974519014 16 -0.0375279553731283 0.3529979930983 0.166377543683629 0.392042622182988 10.8492126224769 -31.5859281614864 0.116520949810078 40.9573636077086 -8.11494743874926 -1.64333804329846 -20.3072032876484 35.6880946632623 4.53052644343551 37.3314327065607 20.4237242374585 72.5432917691949 84.1028748638402 -1290.89588081903 1279.03703340003
0.0013499998524785 0.05444999679178 0.00564999974519014 16 -0.00443020025889074 0.429194444732566 0.0675858490527995 0.434505863085663 8.59538441103856 -15.7164590367871 0.347203312678525 11.9973482953327 -10.5929768309525 -2.21470847484668 -35.750019818905 19.6769465532691 0.530884887703604 21.8916550281157 36.0972231315836 27.7138073321198 50.5005860809874 -111.71124602557 152.435859086956
0.00414999989420176 0.05444999679178 0.00564999974519014 16 0.0158179581165314 0.412516904442261 -0.0539677807099846 0.416332710226283 8.04494041492274 1.06530786929754 0.717159722489726 -13.5619660568762 -10.4820990183676 -2.33079252315588 -39.1771715098686 2.04106336059528 -3.43652109194308 4.37185588375116 39.8943312323583 -14.6272739261738 42.7156637646746 36.956915668754 -28.6512612492898
0.006949999935925 0.05444999679178 0.00564999974519014 16 0.0453561647733052 0.345079181909095 -0.168474106181723 0.386678610636436 8.87190658565311 15.1162334904494 0.497118473805494 -27.4206255535874 -9.29966885363157 -1.84541438701322 -28.3178882624108 -12.2478924799636 -4.80878032546091 -10.4024780929504 28.8150067362163 -42.5368590440368 52.4204210304988 -301.127727681129 325.522708154801
0.00974999997764826 0.05444999679178 0.00564999974519014 16 0.0684753481547038 0.255147313190003 -0.218850839767062 0.343052058439727 8.75830612443428 25.552720846207 -0.205743433946222 -31.4441051231578 -8.51235603851464 -0.935976412088134 -10.0874426455669 -21.2411482683046 -3.30046663627232 -20.3051718562165 9.88169921162073 -56.9968259693648 61.3073091401139 -711.051642868925 706.160231558151
0.0125500000193715 0.05444999679178 0.00564999974519014 16 0.0962436163425446 0.168421448005053 -0.221478120509031 0.294416670212511 5.13138179781961 32.9742515601861 -0.979561468269991 -29.8644808761962 -8.73643304737179 -0.0723715123339681 5.49393512159561 -26.247722613217 -0.61941459739665 -26.1753511008831 -6.4734965898656 -62.8387324363823 68.3795397583572 -923.458107030484 945.644012750693
0.0153500000610948 0.05444999679178 0.00564999974519014 16 0.098181628783544 0.089066540117686 -0.179820553471994 0.223400788382895 -0.787272251173113 38.0592265009096 -1.51584899189015 -27.94197338011 -9.17357333044161 0.40373345630368 13.4559243727343 -30.0459992155779 1.07681613559719 -30.4497326718816 -14.9717733646245 -66.0011998810196 74.2125232235438 -1004.30367268143 1092.47371874344
0.018150000102818 0.05444999679178 0.00564999974519014 16 0.0928673919041951 0.0124616075314892 -0.139635337853882 0.16815966139037 -5.05650487126817 40.5399831918925 -1.65556049434431 -26.1042791910027 -8.45626337065372 0.342832398046679 11.8002514223526 -34.307639121134 0.590165244256765 -34.6504715191807 -13.4558119166969 -66.6442623828952 76.3097094700226 -955.264517534939 1124.34921066547
0.0209500001445413 0.05444999679178 0.00564999974519014 16 0.0706453402837117 -0.0578205218243723 -0.113313652408154 0.145512750884313 -6.75098155100387 39.861793943508 -1.46687581191149 -25.8734198747927 -5.91735227115157 -0.0543611198832312 2.75653279073196 -38.4838709054214 -1.64812073832908 -38.4295097855382 -4.22340860264345 -65.7352138183007 76.2612794170107 -944.041583325157 1094.13927632416
0.0237500001862645 0.05444999679178 0.00564999974519014 16 0.0547512022654215 -0.134635128838127 -0.129628468850666 0.194750743267738 -5.33083523293273 36.0642358312893 -0.938647572333195 -27.0770834076901 -1.89316281135923 -0.590314961758195 -11.4847350602681 -40.7015698501009 -4.37730559990048 -40.1112548883427 10.5460874879349 -63.1413192389794 75.5444169032993 -950.69225074174 983.421243415076