TITLE="DynamicStudio Exported Data"
VARIABLES= "X (m)[m]" "Y (m)[m]" "Z (m)[m]" "Status[-]" "U[m/s]" "V[m/s]" "W[m/s]" "Length[m/s]" "dU/dX[1/s]" "dU/dY[1/s]" "dU/dZ[1/s]" "dV/dX[1/s]" "dV/dY[1/s]" "dV/dZ[1/s]" "dW/dX[1/s]" "dW/dY[1/s]" "dW/dZ[1/s]" "Vorticity X[1/s]" "Vorticity Y[1/s]" "Vorticity Z[1/s]" "Vorticity Magnitude[1/s]" "Lambda-2[1/s²]" "Q-Criterion[1/s²]"
ZONE T="DynamicStudio Data" I=26 J=26 F=POINT
-0.0350500006899238 0.0600499968752265 0.00564999974519014 16 0.255308140714963 0.197182541072446 -0.411877458773088 0.52316942023067 -5.00979368752501 14.663350292664 1.25739468487106 -10.7800037944856 1.85594890525239 1.2793960336824 12.693112463273 -21.4049701591624 -1.26412450826256 -22.6843661928448 -11.435717778402 -25.4433540871496 35.9544208392015 -130.610811937456 164.185084946346
-0.0322500006482005 0.0600499968752265 0.00564999974519014 16 0.240885287721952 0.166017150397723 -0.377110935964932 0.47728406016901 -6.29245752464571 14.7316845274406 0.792781405518623 -18.9712329750238 1.04583085937761 1.02004943047983 17.6088466774598 -20.9739392287308 -1.54050862732677 -21.9939886592107 -16.8160652719412 -33.7029175024644 43.6165362740968 -265.293317319834 288.414335212908
-0.0294500006064773 0.0600499968752265 0.00564999974519014 16 0.218937920729319 0.0873828791273991 -0.312091038671012 0.391114301856404 -8.10260777976518 14.6034444738435 -0.158256195374395 -29.5684788497135 -0.280069096597726 0.444287905850117 21.5119835354868 -18.8799663653169 -2.05453414369768 -19.3242542711671 -21.6702397308612 -44.171923323557 52.860050162972 -439.406059120036 463.085970345094
-0.026650000564754 0.0600499968752265 0.00564999974519014 16 0.19262077887853 -0.0034227647286995 -0.251306689940393 0.316653647038774 -6.18940697698698 13.945039674276 -1.24561927893945 -32.3984210961078 -1.11841038644705 -0.232041463802671 10.3990089090202 -14.3667285950227 -3.41514127132733 -14.13468713122 -11.6446281879596 -46.3434607703838 49.8307445470104 -464.571823170635 493.296322545014
-0.0238500005230308 0.0600499968752265 0.00564999974519014 16 0.180334566434224 -0.0960409128126533 -0.24647202132813 0.320145076617588 -2.89629960758656 12.8708673349295 -1.84464312351586 -28.5653024591366 -0.838411266195592 -0.877625174846773 -6.61124986007746 -8.18522849995887 -5.63124142577004 -7.3076033251121 4.7666067365616 -41.4361697940662 42.3447490645641 -340.610711930151 371.740607955004
-0.0210500004813075 0.0600499968752265 0.00564999974519014 16 0.173527724345525 -0.162836906864419 -0.280069696373927 0.367514304729342 -3.42843577912446 11.3812229777572 -1.82408174472261 -24.3287617157059 0.42151408786705 -1.49769903197021 -15.1171425626314 -1.81222434974436 -7.29715476988531 -0.314525317774148 13.2930608179088 -35.7099846934631 38.1052148516645 -227.413264690012 267.098830405764
-0.0182500004395843 0.0600499968752265 0.00564999974519014 16 0.157913327614466 -0.230545394961955 -0.321364582302437 0.425867341944481 -8.26295869993002 9.08113762449846 -1.61296703947513 -22.8013743674614 2.12382532519544 -2.18051269408984 -8.60167911668471 3.44290230068456 -6.43469854581024 5.6234149947744 6.98871207720958 -31.8825119919598 33.1203783737301 -104.000815622079 222.649877581412
-0.015450000397861 0.0600499968752265 0.00564999974519014 16 0.122203656037648 -0.288644724266681 -0.315203008608272 0.444524967838323 -17.9518094774835 5.59483757036195 -1.92068366517077 -21.582545864575 3.83245731581441 -2.6559340126768 10.7540902980162 7.04014260084522 -2.01261958440617 9.69607661352202 -12.674773963187 -27.1773834349369 31.5162492546743 -39.6228327722257 119.72153933965
-0.0126500003561378 0.0600499968752265 0.00564999974519014 16 0.0480360031127929 -0.348867541262856 -0.244547130017309 0.428741551218849 -31.5454845420506 0.669158831438127 -3.36120678277337 -14.8654632038582 5.49228227082076 -2.57467075636792 36.1133777601636 9.55246805502667 5.13489616951987 12.1271388113946 -39.474584542937 -15.5346220352963 44.1206845183506 26.3459866863866 -151.110847606004
-0.0098500003144145 0.0600499968752265 0.00564999974519014 16 -0.0689424204826354 -0.368040154008195 -0.0937234452137879 0.385993130103532 -44.3065228069638 -4.79561980940896 -5.80671179724525 -0.328182900785179 7.17642519505372 -1.89455333050849 61.8220167341601 11.3388407534726 12.8450409097537 13.2333940839811 -67.6287285314054 4.46743690862378 69.0559601648475 35.0498743792537 -416.009237392026
-0.00705000027269125 0.0600499968752265 0.00564999974519014 16 -0.214916092554728 -0.345713285718036 0.117596193381081 0.423716258194883 -50.7365761303702 -9.54621727471036 -8.42104543993259 20.0411901778137 8.5975310134378 -1.14345211107822 76.2945533755464 12.58940221198 18.2892312432304 13.7328543230583 -84.715598815479 29.5874074525241 90.7785142546694 52.7107470913763 -358.707192096459
-0.004250000230968 0.0600499968752265 0.00564999974519014 16 -0.365241818428039 -0.252510981891004 0.341903390161072 0.56041173266431 -41.6558200426084 -12.7292405631944 -10.0236354883017 42.2509527072878 9.06051768618044 -1.01192345373854 66.6788163707927 13.1790426664872 19.3562563716147 14.1909661202257 -76.7024518590945 54.9801932704821 95.4330723212958 69.7908401367433 211.17655034977
-0.00145000018924474 0.0600499968752265 0.00564999974519014 16 -0.453304448922475 -0.109858654950901 0.487690866411431 0.674830518472351 -16.8368533504257 -13.9577872863505 -9.85471933350504 59.7128456750153 7.88569707570594 -1.40718108916708 29.5026347989317 12.4740026858177 15.9003015055624 13.8811837749848 -39.3573541324367 73.6706329613658 84.6702471251219 -864.371258370259 866.656155601617
0.0013499998524785 0.0600499968752265 0.00564999974519014 16 -0.458004372119904 0.0771936057486649 0.493825520048849 0.677931045093042 14.2592888822154 -13.5937435744287 -8.10742199402773 64.0817615229619 5.0464259328579 -1.64492943321488 -17.8168009549386 10.1340523491154 9.73812163858425 11.7789817823303 9.70937896091083 77.6755050973906 79.1612313179236 -202.958341507935 1003.29235539068
0.00414999989420176 0.0600499968752265 0.00564999974519014 16 -0.367161238193512 0.242528760658073 0.368958265606392 0.574245397314954 39.5431353007002 -11.4424326422495 -5.70267938922586 48.2888250437002 1.24597989118112 -1.29595918469096 -53.2317072302247 5.95419830093658 3.69244065916543 7.25015748562754 47.5290278409988 59.7312576859497 76.677222275081 23.1465782242482 456.576005041186
0.006949999935925 0.0600499968752265 0.00564999974519014 16 -0.226060123840968 0.341224817953383 0.176639046175405 0.445801422846619 49.0947130906754 -7.61150675644832 -3.74001164388545 19.0496990214836 -2.44449413677078 -0.783640727918239 -63.4552612164917 0.783643732689472 -0.124949581313678 1.56728446060771 59.7152495726062 26.6612057779319 65.4154974423671 11.7838822059359 -217.55307148311
0.00974999997764826 0.0600499968752265 0.00564999974519014 16 -0.0813030163447062 0.343499632024517 -9.64729899230101E-05 0.352990349690701 45.9035210369941 -2.56668992418582 -2.80121723894167 -8.9845241224202 -5.12796122571379 -0.699370391179705 -53.9604699061629 -4.51404149291023 -1.31116917025766 -3.81467110173052 51.1592526672212 -6.41783419823438 51.7011551600057 33.3970347060613 -466.227605951846
0.0125500000193715 0.0600499968752265 0.00564999974519014 16 0.0423622286319734 0.28667219205046 -0.135005778461539 0.319690575913163 34.842854203268 2.78904398383847 -2.72247968176142 -22.3783795859324 -6.32443157709441 -0.950678681285024 -35.6576524504435 -9.1729446446074 -0.627571519989302 -8.22226596332237 32.9351727686821 -25.1674235697708 42.2579042548823 0.470567078390433 -281.642069456131
0.0153500000610948 0.0600499968752265 0.00564999974519014 16 0.122849622170131 0.216924381599917 -0.204147066121222 0.322217692881308 22.4528153860709 7.0925200099442 -2.9996329382826 -23.2601975121337 -6.01665897331995 -1.01215676708391 -16.4511209081271 -12.0263201753796 0.645639667451076 -11.0141634082957 13.4514879698445 -30.3527175220779 34.9791621563835 40.748775344866 -21.0255278146506
0.018150000102818 0.0600499968752265 0.00564999974519014 16 0.174158692161242 0.158537219977006 -0.227954705212614 0.327763097071531 13.3042524719913 9.96535320418759 -3.11003950712877 -22.3359082306577 -4.49649203413414 -0.688103510051409 -3.91981191710042 -12.7501887880366 1.57516271723107 -12.0620852779852 0.809772409971647 -32.3012614348453 34.4894349459594 -76.9835394576292 155.672185676859
0.0209500001445413 0.0600499968752265 0.00564999974519014 16 0.201643395821254 0.0965285498776939 -0.224175026031056 0.316594791991027 6.88974319610004 11.4717477612741 -2.86514543103222 -25.9565124528918 -2.2804203664636 -0.380310045043073 2.84892931692865 -12.1017777626309 1.99946575760556 -11.7214677175878 -5.71407474796087 -37.4282602141659 39.6348094273084 -269.349731912206 294.831405251187
0.0237500001862645 0.0600499968752265 0.00564999974519014 16 0.214954926172892 0.0178624718395683 -0.209835882394885 0.300924883860828 2.87238460031129 11.9143268299002 -2.44958285908763 -32.4692506864363 -0.0502362002298835 -0.529090061315206 -2.18543249779191 -12.2292646614633 1.86457782933411 -11.7001746001481 -0.264150361295716 -44.3835775163365 45.9006079941864 -375.927002566223 380.143301874269
0.0265500002279878 0.0600499968752265 0.00564999974519014 16 0.218560830950737 -0.0822908878301678 -0.239910626962652 0.334809999813875 -1.84165481000407 11.5098601472942 -2.1964037611434 -34.4092246373732 1.84094838068325 -0.883477536002824 -11.4614286414787 -14.5511844331284 1.49123982987626 -13.6677068971256 9.26502488033534 -45.9190847846674 48.7976356529744 -367.668173912897 354.624348912079
0.029350000269711 0.0600499968752265 0.00564999974519014 16 0.202996287743251 -0.172119220945751 -0.281323791591373 0.387266826325028 -5.4698190728669 10.4408400617485 -2.29962766291685 -29.274128925633 3.33324803155223 -0.922119555160265 -19.7491131579678 -18.266839186546 1.1667661429476 -17.3447196313858 17.4494854950509 -39.7149689873816 46.7183326415022 -232.756274806054 222.661539087932
0.0321500003114343 0.0600499968752265 0.00564999974519014 16 0.184984973271688 -0.243438603794978 -0.359262982273552 0.471753838973317 -5.32422310884368 9.32517532141289 -2.63835154681542 -17.7668993287757 4.37261131547667 -0.571000001831003 -17.0728335883086 -21.4852127082205 1.18536274420743 -20.9142127063895 14.4344820414932 -27.0920746501886 37.1448391272016 -92.1559472167777 83.9584943780988
0.0349500003531575 0.0600499968752265 0.00564999974519014 16 0.170604622761408 -0.269110034420155 -0.380715529990072 0.496457916352233 -4.68312304131015 8.67383908662879 -2.88708634590508 -9.68143841070818 4.90299098835121 -0.20318870149456 -8.26803692890909 -22.7118310424971 1.65838239445819 -22.5086423410025 5.380950583004 -18.355277497337 29.5382772215332 -16.0457653659864 32.8932299822036
-0.0350500006899238 0.0572499968335032 0.00564999974519014 16 0.213925273418426 0.190535168597028 -0.351282583375384 0.453284818257053 -5.03431054401929 23.6684197610545 0.840706010904458 -10.1241072225589 1.72756704882219 0.948875743131179 12.3493028391555 -34.1629747456375 -0.370473441668715 -35.1118504887687 -11.508596828251 -33.7925269836133 50.0721951350159 -207.349878276133 254.183856005423
-0.0322500006482005 0.0572499968335032 0.00564999974519014 16 0.199056732257207 0.162071640559928 -0.316076198066585 0.407179275399585 -6.25871892207215 23.6200753657201 0.356365832556077 -17.9880245782021 0.79576580998311 0.763062000773625 16.5682052619765 -33.1514070989255 -0.789431116490048 -33.9144690996992 -16.2118394294205 -41.6080999439221 56.0736028175752 -403.616801780138 443.602883626911
-0.0294500006064773 0.0572499968335032 0.00564999974519014 16 0.176836742957433 0.0886746092006797 -0.256867153599548 0.324214673596092 -7.74024652816578 23.2667221960795 -0.533469785038295 -28.4753208033314 -0.83863398122903 0.305887675532713 18.626145979694 -29.9229190821207 -1.79720964177214 -30.2288067576534 -19.1596157647323 -51.7420429994109 62.9135172120953 -679.496915912973 703.526197359123
-0.026650000564754 0.0572499968335032 0.00564999974519014 16 0.152925998369853 0.000495654120277322 -0.210200088593798 0.259943616761912 -5.42703580361906 22.3614580376347 -1.37611685842383 -32.081680153456 -1.96908587364659 -0.287083902274574 5.70603174943351 -23.8485169568393 -3.85652903720189 -23.5614330545647 -7.08214860785734 -54.4431381910907 59.744064580364 -735.126075428464 757.608443249724
-0.0238500005230308 0.0572499968335032 0.00564999974519014 16 0.144418884913127 -0.0926408138822686 -0.224723908807403 0.282736573343454 -1.98235984243839 21.0432045455674 -1.60355197448487 -29.3186703476013 -1.62579196791755 -0.893362622922595 -11.9452798218235 -15.8820098671946 -6.67694433365834 -14.988647244272 10.3417278473386 -50.3618748931688 53.553051489498 -584.738453494787 610.929839586832
-0.0210500004813075 0.0572499968335032 0.00564999974519014 16 0.141387734015783 -0.163934163306403 -0.277241324333784 0.351749418119546 -2.00335259801546 19.2007297183677 -1.22103959808615 -25.6860722945105 0.0649113813308729 -1.44117557266268 -20.035401950447 -7.75405523437107 -8.66080385112654 -6.31287966170839 18.8143623523608 -44.8868020128782 49.078077338996 -450.665226239793 474.210776285643
-0.0182500004395843 0.0572499968335032 0.00564999974519014 16 0.132960467338562 -0.235938866567643 -0.33406676612484 0.430053762756729 -5.813216621149 16.0925995762306 -0.761931653178454 -24.2020647812819 2.25547529484656 -1.98090744072747 -12.319773849263 -0.86940999745347 -7.76850151086357 1.111497443274 11.5578421960845 -40.2946643575125 41.9342237138186 -334.006465160004 392.89184345046
-0.015450000397861 0.0572499968335032 0.00564999974519014 16 0.106285820404689 -0.299445322643345 -0.336663420895735 0.462932431183314 -14.1091159792944 10.962264017306 -0.969330313407279 -22.713226187825 4.21730203504417 -2.30289511611092 8.20084031329922 4.20285461978826 -3.09771567757778 6.50574973589919 -9.1701706267065 -33.675490205131 35.5028935370758 -116.473756957748 237.756062247088
-0.0126500003561378 0.0572499968335032 0.00564999974519014 16 0.0466106283664702 -0.363142369681154 -0.272325156173514 0.456295871139867 -26.142840584829 3.35881947486987 -2.38461536128116 -16.0861932758393 6.01543744527327 -2.12268470796113 33.8541469031856 8.17789364342281 4.29050169130794 10.3005783513839 -36.2387622644667 -19.4450127507092 42.3964423708969 21.3973576777763 -91.498451611649
-0.0098500003144145 0.0572499968335032 0.00564999974519014 16 -0.0530059496561686 -0.388223080434836 -0.127573409459243 0.412070098020132 -38.7420288412467 -5.78672556778652 -4.89884165931623 -1.70884975230634 8.05545339403128 -1.43397637607984 59.784117091614 11.8795665767983 12.2467087286002 13.3135429528781 -64.6829587509303 4.07787581548018 66.1646782649108 58.0020928626668 -387.874862451282
-0.00705000027269125 0.0572499968335032 0.00564999974519014 16 -0.187604656219482 -0.369518206574721 0.0830073332033741 0.422645749287704 -45.6395544051906 -14.8647087702494 -7.67201886921242 18.8771371148605 10.1264713690443 -0.782369951617775 73.7643745049092 16.0307912704791 18.1009935596408 16.8131612220969 -81.4363933741216 33.7418458851099 89.7389587626211 96.9028502320735 -245.922900203913
-0.004250000230968 0.0572499968335032 0.00564999974519014 16 -0.326292301019033 -0.279623237893296 0.302887128680013 0.525734185301135 -38.4916353024724 -22.0649074727369 -9.48899097437745 42.2202702404678 11.1668780079032 -0.845323156052066 64.9891374050507 20.0541022886894 19.8373252186864 20.8994254447414 -74.4781283794281 64.2851777132047 100.580125593684 -44.0484323984683 593.338398915986
-0.00145000018924474 0.0572499968335032 0.00564999974519014 16 -0.41508408387502 -0.132904517836869 0.455007107400064 0.630071325591308 -16.1853780066024 -25.4710519823109 -9.54128271386245 61.2804636570834 10.0215493628133 -1.48353020583688 30.0042167336578 21.4772126465951 17.1713566332378 22.960742852432 -39.5454994475203 86.7515156393943 98.0656295784685 -1585.00387949304 1610.9748189543
0.0013499998524785 0.0572499968335032 0.00564999974519014 16 -0.41729611992836 0.0612095893207394 0.463995457299898 0.627036242913453 12.4487114368287 -24.4332977847216 -7.91797399962412 66.9350632516608 6.54705336632907 -1.90248704656961 -14.5375429824313 18.4763561849291 11.5706371774971 20.3788432314987 6.61956898280717 91.3683610363824 93.8471807964782 -1208.05826987393 1856.78295418868
0.00414999989420176 0.0572499968335032 0.00564999974519014 16 -0.334574932257334 0.239165298875499 0.354825316580633 0.543177163334168 35.2411909483739 -19.0378796310684 -5.57918542044297 51.5686157775594 1.68077625099665 -1.57057145658451 -47.6329232440934 10.9915989090169 5.59690970752106 12.5621703656014 42.0537378236505 70.6064954086278 83.1360462322048 12.6513796856696 999.148753967988
0.006949999935925 0.0572499968335032 0.00564999974519014 16 -0.203166332244873 0.348036866273421 0.17468881420083 0.439229325808454 43.8721338934026 -10.7903313767364 -3.61010180285138 21.8890437969946 -3.20820124905627 -0.940445513126806 -57.6860634805958 1.34713537640545 1.26638733562677 2.28758088953226 54.0759616777444 32.679375173731 63.2248702604007 2.61496844022714 -60.0499636989138
0.00974999997764826 0.0572499968335032 0.00564999974519014 16 -0.0732119059562684 0.359359042734432 0.0135185141725621 0.366989993043666 40.3756369038552 -1.72147365707895 -2.63180010356521 -7.16686150995525 -6.9707196073846 -0.726374347702441 -48.5736229418371 -8.04301424861629 -0.731929451721496 -7.31663990091385 45.9418228382719 -5.4453878528763 46.8384089611407 58.830777761433 -451.913155038538
0.0125500000193715 0.0572499968335032 0.00564999974519014 16 0.0333943474292755 0.305045400096957 -0.10847522877312 0.325476195470453 30.393907447936 6.47011259538382 -2.5344613916649 -22.0416760992168 -8.72626225610488 -0.942553299568396 -31.7083513646961 -15.8261945814571 -0.789434699110727 -14.8836412818887 29.1738899730312 -28.5117886946006 43.4230437502028 -2.82016032788375 -234.998896437538
0.0153500000610948 0.0572499968335032 0.00564999974519014 16 0.102498417297999 0.234894818523123 -0.169854791545852 0.307460812996861 19.4482791606534 12.4891035674315 -2.7772667448275 -24.2614828476788 -8.1642712752002 -1.02519061960292 -14.3228616020665 -20.9526297963411 0.0590616763189654 -19.9274391767381 11.545594857239 -36.7505864151103 43.3706028849564 11.5775425774533 83.6307507606293
0.018150000102818 0.0572499968335032 0.00564999974519014 16 0.14524896701177 0.171513408060515 -0.192270323247006 0.295773543042692 11.2884093818282 16.5518718182643 -2.87823680756846 -24.1972108679778 -5.808405615397 -0.715319570540459 -3.14913372259986 -23.6102777593499 0.921867349966088 -22.8949581888095 0.270896915031396 -40.7490826862421 46.7412048986342 -349.700299318497 314.040462414433
0.0209500001445413 0.0572499968335032 0.00564999974519014 16 0.168945518732071 0.10310322679036 -0.191926942000955 0.275696961789699 5.71618234528921 19.2391442402095 -2.6269174188622 -27.8603098829919 -2.781996103867 -0.390575322895577 3.13445895972811 -24.8826226051185 1.48041299102816 -24.4920472822229 -5.7613763785903 -47.0994541232014 53.3986181146476 -525.87827362478 522.96535731366
0.0237500001862645 0.0572499968335032 0.00564999974519014 16 0.181623796224594 0.0175807667989284 -0.179618532435658 0.256045120849062 2.29912249582042 20.8384408393025 -2.16881961744796 -33.9667697394588 -0.124074342822286 -0.471689990598188 -0.691747962965715 -26.6193411498 1.62050871625065 -26.1476511592019 -1.47707165448225 -54.8052105787613 60.7411928463555 -695.080013362405 696.997590766295
0.0265500002279878 0.0572499968335032 0.00564999974519014 16 0.18580140153567 -0.0871949318315213 -0.199709174676124 0.286371910982103 -1.35479029910152 21.0596606604261 -1.82317477550772 -35.5958363178913 1.92966153041398 -0.791660821922053 -8.98672818121438 -29.8137528876689 1.61457243602188 -29.0220920657468 7.16355340570666 -56.6554969783174 64.0581272215261 -710.248345984307 707.96336205128
0.029350000269711 0.0572499968335032 0.00564999974519014 16 0.175002186695735 -0.182046355550798 -0.230837935716651 0.34212979040642 -4.23911267280954 19.6984297779815 -1.80973075737956 -30.1821900201414 3.52690108848414 -0.868430936850114 -17.1661431771845 -33.632871744244 1.75432541903973 -32.7644408073938 15.356412419805 -49.8806197981229 61.62308183849 -519.215765441857 518.067445060247
0.0321500003114343 0.0572499968335032 0.00564999974519014 16 0.159503132502238 -0.255622138403511 -0.294780457772043 0.421520397139101 -4.20367252617807 17.719061042037 -2.06451161925653 -18.3124053393014 4.6340137655434 -0.585866152424106 -15.5766457264995 -36.6392384129449 2.12418101817378 -36.0533722605208 13.5121341072429 -36.0314663813385 52.732248094286 -239.06323440075 252.289018645316
0.0349500003531575 0.0572499968335032 0.00564999974519014 16 0.148101882139842 -0.283698837494788 -0.316678897819753 0.450227411663919 -3.65841852755766 16.474054366382 -2.25977107826547 -10.1873195273544 5.17135359065968 -0.281448338256817 -8.14757609299729 -37.7667071086325 2.61358943144472 -37.4852587703757 5.88780501473182 -26.6613738937364 46.3749903598387 -84.7937307563828 123.820637274027
-0.0350500006899238 0.05444999679178 0.00564999974519014 16 0.121601468324661 0.184698016818923 -0.216435372371537 0.309426154242273 -5.07991754582127 34.742330403689 0.13595540169563 -8.88894433839883 3.17761220236034 0.499556456331993 11.5998611866499 -51.5900759925311 1.50986970443546 -52.0896324488631 -11.4639057849542 -43.6312747420878 68.9089187269943 -297.216091839003 314.003491714872
-0.0322500006482005 0.05444999679178 0.00564999974519014 16 0.106950358549754 0.159361433910877 -0.18566339017901 0.267030597993591 -6.207999843429 34.7551580543142 -0.331267266077226 -16.1852820606648 1.89494996227546 0.409763396221472 14.8247141739888 -50.6083386670867 0.730304007813592 -51.0181020633082 -15.155981440066 -50.9404401149789 73.6714256049217 -541.913407347642 573.256736752987
-0.0294500006064773 0.05444999679178 0.00564999974519014 16 0.0863384739557902 0.092538240456682 -0.138607337836487 0.187695636960349 -7.20389067207888 34.5214362892247 -1.02479204427583 -26.3087645798726 -0.439948987508487 0.0844105481681906 13.8354856163365 -47.3026752325463 -1.25332762295172 -47.3870857807145 -14.8602776606123 -60.8302008690973 78.5281929545944 -897.080813933953 939.137260424875
-0.026650000564754 0.05444999679178 0.00564999974519014 16 0.0664215675989788 0.0100277902694264 -0.116361182645584 0.134358870368399 -4.35126441004502 33.8145731980086 -1.38976025497276 -31.1614420624754 -2.39629140953032 -0.445785203535798 -2.18583130679798 -40.6945539382387 -4.66229491356144 -40.2487687347029 0.796071051825221 -64.976015260484 76.4361149778676 -1036.69768847376 1074.41804479562
-0.0238500005230308 0.05444999679178 0.00564999974519014 16 0.0633016534646351 -0.0848134737958511 -0.161083231442996 0.192738766522965 -0.606479894734519 32.6811753487979 -0.989155784765686 -30.2219388827452 -2.75655487109608 -1.03786430957791 -20.9988270446217 -31.7156507488538 -8.63740738358399 -30.6777864392759 20.009671259856 -62.9031142315431 72.789527438828 -937.069317483291 964.720527221582
-0.0210500004813075 0.05444999679178 0.00564999974519014 16 0.0657002123196919 -0.162713714464529 -0.242822679344875 0.299591595973453 0.446793164254194 30.6976244660241 -0.064414774127865 -27.5787587204629 -1.65130325924827 -1.45525229549638 -28.6136137707454 -22.2118463385806 -11.175204199535 -20.7565940430843 28.5491989966176 -58.276383186487 68.1324430570057 -803.278427276477 825.158253864017
-0.0182500004395843 0.05444999679178 0.00564999974519014 16 0.0679628908634187 -0.242984531600572 -0.324190899496898 0.410804304320524 -1.00996183530026 26.5523540600429 0.713919926262828 -25.9304130580632 -0.220832470030313 -1.67554188214224 -19.4965136574801 -13.3415399469827 -10.1859436586625 -11.6659980648405 20.2104335837429 -52.4827671181061 57.4369043461179 -666.800310143632 692.837982896366
-0.015450000397861 0.05444999679178 0.00564999974519014 16 0.0596698033809662 -0.312166216229865 -0.343590130556937 0.468041034319564 -6.06072117368725 18.8310400275116 0.630289147130045 -23.7856877976974 0.618150676425753 -1.62989661449114 2.17860794249953 -5.21483238520773 -5.08972400869172 -3.58493577071659 -1.54831879536949 -42.616727825209 42.7952631268952 -409.847710423494 461.991191244302
-0.0126500003561378 0.05444999679178 0.00564999974519014 16 0.0287407875061034 -0.379683623956207 -0.292260324878371 0.480001859022442 -14.4784491066558 6.72169828616744 -0.683529753518865 -17.5329222854458 1.33920588567546 -1.23437074367432 27.3626241265438 3.32388373859912 2.59834137510581 4.55825448227344 -28.0461538800627 -24.2546205716132 37.3584133825601 -29.9683919663767 87.1272226869972
-0.0098500003144145 0.05444999679178 0.00564999974519014 16 -0.0315802383422852 -0.412202892823455 -0.163118521591338 0.444427933856463 -25.6734343293105 -8.86574266128554 -3.11421697664931 -3.99471406826255 3.0317832624801 -0.579268511992193 52.2365159926715 13.6613346808078 10.722484378636 14.2406031928 -55.3507329693208 4.87102859302299 57.36048586867 20.4769069057068 -185.437719377463
-0.00705000027269125 0.05444999679178 0.00564999974519014 16 -0.129863766034444 -0.401422842323324 0.0311100160023974 0.423051686160515 -32.987068421267 -25.5088399546825 -5.89636180278546 16.2115645409416 5.91220217734221 -0.169719372554401 64.43774707623 26.3843385147487 16.9828624689172 26.5540578873031 -70.3341088790155 41.7204044956241 85.9802129176588 103.125055938346 143.129461656451
-0.004250000230968 0.05444999679178 0.00564999974519014 16 -0.23028119246165 -0.319294814678918 0.223065168174022 0.452478370239848 -29.8758794373982 -39.5768831011928 -7.91362641738558 40.8446923671834 8.91294598568659 -0.567536096740321 57.4424861600961 39.2343061701722 19.7398915813671 39.8018422669125 -65.3561125774817 80.4215754683762 111.010080172462 -1389.47980352538 1413.26274279456
-0.00145000018924474 0.05444999679178 0.00564999974519014 16 -0.30661562760671 -0.168499941958386 0.368292126085144 0.507980770963775 -14.2686845648555 -46.7031878984398 -8.41285037201795 62.153704834441 10.5606113267034 -1.52153093206484 29.0173495592001 46.3447142316787 18.6633888150103 47.8662451637435 -37.4301999312181 108.856892732881 124.667639700222 -2878.46480710499 2997.51844731142
0.0013499998524785 0.05444999679178 0.00564999974519014 16 -0.310957934061686 0.0362159497456742 0.385689415818585 0.496752209100648 7.25343552445456 -44.4623596254018 -7.28476421607388 70.0781584390269 10.0187709584638 -2.11695832445738 -7.14313123521738 42.9380261205885 14.5389754812023 45.0549844450459 -0.1416329808565 114.540518064429 123.083313092037 -3135.08918302452 3478.49296316352
0.00414999989420176 0.05444999679178 0.00564999974519014 16 -0.257790130376816 0.233863425819824 0.313441359161613 0.4683944266203 23.8966074182669 -33.3179183365738 -5.34352827837488 56.2337961548012 7.0767725091882 -1.74483919379061 -33.5831342087219 28.9785826139153 9.18930587875195 30.7234218077059 28.239605930347 89.551714491375 98.7973357890801 -1111.15835742775 2198.43828413833
0.006949999935925 0.05444999679178 0.00564999974519014 16 -0.163969029585521 0.359078822850715 0.173609996150869 0.431235288962508 30.6522133553573 -17.0009625227535 -3.5255244363376 27.0646530803655 2.12496034862842 -0.914577777083118 -42.6496091841336 9.53680281469288 4.28032088617537 10.451380591776 39.124084747796 44.065615603119 59.8473378030194 -7.26399604172202 523.91662042325
0.00974999997764826 0.05444999679178 0.00564999974519014 16 -0.072023647626241 0.386817907405396 0.0491744094757208 0.396526949719895 27.9026117098084 -0.376874510318731 -2.47244151793685 -2.88216668427451 -3.57282540209489 -0.489343714711158 -35.3020339265631 -9.38109087202166 0.915625877209051 -8.8917471573105 32.8295924086262 -2.50529217395577 34.1045714546152 18.4834376938124 -170.373185332086
0.0125500000193715 0.05444999679178 0.00564999974519014 16 0.00189590096473702 0.338275224698397 -0.0425403426321767 0.340944867737413 21.100654440186 13.1978174390153 -2.25027925751331 -20.3973504460185 -7.74630323225366 -0.651891881827199 -22.025613916596 -24.552237002555 -0.46120952433179 -23.9003451207279 19.7753346590827 -33.5951678850338 45.7266406265781 67.0885626967109 34.020099651943
0.0153500000610948 0.05444999679178 0.00564999974519014 16 0.051685833533605 0.266161238069957 -0.0850801328920837 0.28416871582201 13.4374061696216 22.4829524657494 -2.37677953256568 -25.6210688444838 -8.59303386955167 -0.826461344957197 -8.75565148737495 -34.6757493504627 -0.336241168754479 -33.8492880055055 6.37887195480927 -48.1040213102332 59.1646953183305 -484.582677402139 409.471889518631
0.018150000102818 0.05444999679178 0.00564999974519014 16 0.0799465354283651 0.191209722497345 -0.095377786422226 0.228143657916047 7.15972056794203 28.5597460198345 -2.43713703100179 -27.5209614466786 -6.26556295384909 -0.641992232345192 -0.582468768475378 -40.1519764562699 0.424766016236952 -39.5099842239247 -1.85466826252641 -56.0807074665131 68.6259746574387 -741.044114589196 714.31498375273
0.0209500001445413 0.05444999679178 0.00564999974519014 16 0.093435533841451 0.111557363934504 -0.0860194487691236 0.169040202315296 2.90389219850178 32.813452558563 -2.18176433137695 -31.1730012822441 -2.65553048742605 -0.376715120430115 4.25405312401359 -42.5658907289112 1.19188255067646 -42.1891756084811 -6.43581745539054 -63.9864538408071 76.9130194438114 -1013.73311156199 1008.72456912491
0.0237500001862645 0.05444999679178 0.00564999974519014 16 0.0976188627878825 0.0170936744537903 -0.0656763804946483 0.118890802979917 0.787794335817765 35.53777426626 -1.68536603600306 -36.2201964633519 0.252665874674522 -0.401746798310532 1.92608607519663 -44.5666003866776 1.7234924679639 -44.164853588367 -3.6114521111997 -71.7579707296119 84.337318205319 -1268.41270760377 1274.51911091173