TITLE="DynamicStudio Exported Data"
VARIABLES= "X (m)[m]" "Y (m)[m]" "Z (m)[m]" "Status[-]" "U[m/s]" "V[m/s]" "W[m/s]" "Length[m/s]" "dU/dX[1/s]" "dU/dY[1/s]" "dU/dZ[1/s]" "dV/dX[1/s]" "dV/dY[1/s]" "dV/dZ[1/s]" "dW/dX[1/s]" "dW/dY[1/s]" "dW/dZ[1/s]" "Vorticity X[1/s]" "Vorticity Y[1/s]" "Vorticity Z[1/s]" "Vorticity Magnitude[1/s]" "Lambda-2[1/s²]" "Q-Criterion[1/s²]"
ZONE T="DynamicStudio Data" I=26 J=26 F=POINT
-0.0350500006899238 0.0600499968752265 0.00564999974519014 16 0.137454618414243 -0.307041476190013 -0.165866797647905 0.375073372537052 -12.4369202191096 6.67840471325899 -5.50894814184173 -2.50026180657408 7.41676356539393 -0.613889304383281 11.5169697409277 -10.5235842153313 11.3850855027267 -9.90969491094798 -17.0259178827695 -9.17866651983307 21.73319700507 77.7773139569864 -75.7127759926707
-0.0322500006482005 0.0600499968752265 0.00564999974519014 16 0.100539714296659 -0.311669821028287 -0.133032657423367 0.353474184958083 -18.7715483131372 3.97882227962315 -4.94588275003278 -0.527130282793105 8.65931917457723 0.093135573349899 19.1304509382477 -8.48727811828135 10.5565749341229 -8.58041369163125 -24.0763336882804 -4.50595256241626 25.953746386287 89.2147405710315 -171.794540373686
-0.0294500006064773 0.0600499968752265 0.00564999974519014 16 0.0257429353396097 -0.304176148007973 -0.0551866899399708 0.310211860642687 -32.1875671322186 -1.56617072989338 -3.85720686235976 11.6722494048435 10.5260137972318 1.44071201668156 34.8767233480476 -3.56075753557583 8.33585425907217 -5.00146955225739 -38.7339302104074 13.2384201347369 41.2381839426844 110.95612891526 -361.43682918404
-0.026650000564754 0.0600499968752265 0.00564999974519014 16 -0.0897866241137186 -0.239973557780419 0.0677894208207727 0.265036510463646 -36.8439688913161 -8.01473029196074 -2.66852404434598 31.5892080002628 11.2212086328274 2.81155347579171 44.6007440743547 3.09120334538275 5.28212622082888 0.279649869591044 -47.2692681187007 39.6039382922235 61.6679320293897 30.1965962995348 -185.270458895434
-0.0238500005230308 0.0600499968752265 0.00564999974519014 16 -0.190083505312602 -0.125858985727731 0.201236723227582 0.304086241148318 -31.2127392759392 -12.8617737003991 -1.86176526705156 49.1630707716723 9.08869944602533 3.61195818443054 43.3843685481493 9.10593045621379 2.7444521385672 5.49397227178325 -45.2461338152008 62.0248444720714 76.9706287380507 -17.1380569240575 335.803986548572
-0.0210500004813075 0.0600499968752265 0.00564999974519014 16 -0.269920699993769 0.0288068974473329 0.315953982405675 0.416550045761218 -14.7117344175289 -14.5385943788547 -1.72305542122926 56.1335421675275 4.21405926983023 3.70782229623577 27.5562894836084 12.6801171174161 1.56008865945042 8.97229482118029 -29.2793449048376 70.6721365463821 77.0216397932756 -611.40659343903 738.194768892888
-0.0182500004395843 0.0600499968752265 0.00564999974519014 16 -0.272491335471471 0.176980233843205 0.35859797823204 0.483907058297695 8.2919118291509 -13.095852241857 -2.1047443783948 51.5321558971503 -1.56308925539362 3.2948034216946 1.36761533814305 13.5445208388897 1.45299929269086 10.2497174171951 -3.47235971653785 64.6280081390073 65.5278065034149 -540.56751238034 629.925422576491
-0.015450000397861 0.0600499968752265 0.00564999974519014 16 -0.219255260626475 0.305708683354702 0.323407831235478 0.496108147176888 29.0285826607354 -9.64785091512388 -2.52126786234835 37.272111355924 -6.21038146420014 2.68863700991605 -24.3762876582592 12.1448417412075 1.60871621257158 9.45620473129148 21.8550197959109 46.9199622710479 52.6169607419159 58.4680488495651 121.912990511093
-0.0126500003561378 0.0600499968752265 0.00564999974519014 16 -0.102930045127869 0.377902233889351 0.218240364046069 0.448367649443565 40.2556697205638 -5.50913214752709 -2.43810469583846 15.6210130233931 -8.76388727016099 1.90748404432155 -37.9613666990766 9.42173540199002 1.46490385844909 7.51425135766848 35.5232620032382 21.1301451709202 42.0101077332716 33.483657657707 -331.131089129285
-0.0098500003144145 0.0600499968752265 0.00564999974519014 16 0.014653332233429 0.388784249993041 0.104634059578724 0.402884846590336 37.0916011858307 -1.42381348787313 -1.72528025917292 -6.12517623180251 -9.5211736208688 0.771712289150102 -36.7631040321629 6.06291819245633 0.664423071096408 5.29120590330623 35.03782377299 -4.70136274392939 35.7456118468868 102.824189731061 -411.663741276446
-0.00705000027269125 0.0600499968752265 0.00564999974519014 16 0.114016311963399 0.340946557011533 0.00323917546911009 0.359520189126387 24.7548932216569 2.19102276269538 -0.758400146029491 -21.4818362450467 -8.82107466768728 -0.42463074948485 -26.0549343461439 2.74940136091919 -0.409552146442967 3.17403211040404 25.2965342001144 -23.6728590077421 34.7907081844545 51.1135750825096 -196.415884543663
-0.004250000230968 0.0600499968752265 0.00564999974519014 16 0.161141819953919 0.269051355984363 -0.0487313999018321 0.317380005090865 12.2998055465115 5.22773342015554 0.165671947353098 -27.9381011247989 -7.04692574955355 -1.20049454142817 -18.1611542045469 -0.174662618326267 -1.625111070799 1.0258319231019 18.3268261519 -33.1658345449544 37.9064304439195 -30.5675034956518 53.639727677325
-0.00145000018924474 0.0600499968752265 0.00564999974519014 16 0.189965447584788 0.187373689795689 -0.106775581418769 0.287396582601562 6.88583985669398 7.77910033859824 0.940192571416701 -28.4525851372569 -4.85432745472716 -1.19975615233744 -16.5300899197796 -3.10373618668445 -2.80806351979071 -1.90398003434701 17.4702824911963 -36.2316854758551 40.2687340590027 -186.282655728768 194.022518506281
0.0013499998524785 0.0600499968752265 0.00564999974519014 16 0.205247981548309 0.114903497544777 -0.148485129107721 0.278167901174478 6.83741796645285 9.75473299278432 1.42258002653422 -27.4960732917294 -2.77358681895251 -0.50715782864513 -17.1677220528785 -6.35761951796776 -3.52319672538337 -5.85046168932263 18.5903020794127 -37.2508062845138 42.0410490143671 -251.893132603225 256.133146355474
0.00414999989420176 0.0600499968752265 0.00564999974519014 16 0.231936848163605 0.0387345234318248 -0.210381417449486 0.315524017547971 7.45883300902671 11.2290345114779 1.51368677725815 -27.3603535837883 -1.10875844278244 0.291863292797139 -13.9963219704822 -9.86759032245488 -3.60713452150768 -10.159453615252 15.5100087477404 -38.5893880952662 42.8125652429577 -293.047926982832 300.120772284938
0.006949999935925 0.0600499968752265 0.00564999974519014 16 0.249057678778966 -0.0342304199716697 -0.232483495371416 0.342417909330565 1.30256956483119 12.1568097798883 0.891258542464532 -28.3008596861346 0.442538280630411 0.721147358360884 -4.12441777284188 -12.7142372694454 -3.00749022446084 -13.4353846278063 5.01567631530641 -40.457669466023 42.9242307749246 -353.506691397455 352.220971114587
0.00974999997764826 0.0600499968752265 0.00564999974519014 16 0.238008006413778 -0.116406878984223 -0.235881536346084 0.354737186915747 -7.31309921320658 12.3746864427637 -0.311985394392912 -29.7903400524067 2.11294917075632 0.536952214563036 2.47954598065068 -13.8581620631636 -2.55106300996977 -14.3951142777266 -2.7915313750436 -42.1650264951705 44.6419244861273 -355.853214928011 374.674573613501
0.0125500000193715 0.0600499968752265 0.00564999974519014 16 0.205244079828262 -0.199068886803147 -0.218551522880637 0.359886540663916 -16.1586706242557 11.4835024297567 -1.59140351030124 -29.9826619993625 3.79941452622697 -0.0987766476054381 3.86922084223747 -12.8642753745341 -2.79477350443332 -12.7654987269286 -5.46062435253871 -41.4661644291193 43.7289282801387 -188.314921565906 322.340607138315
0.0153500000610948 0.0600499968752265 0.00564999974519014 16 0.142047682205836 -0.282704490079389 -0.211226786618354 0.380415730637172 -20.0067135249126 9.14325326183842 -2.39917646534192 -28.0375493378599 5.49401645078739 -0.826237287770772 0.409104566377521 -10.5283046889365 -3.98557951790153 -9.70206740116572 -2.80828103171944 -37.1808025996983 38.5282835870949 -74.0964226423805 196.561345549931
0.018150000102818 0.0600499968752265 0.00564999974519014 16 0.0869777200619379 -0.354323480511084 -0.214788039181731 0.423372359046022 -23.6554045706458 5.56039262614914 -2.44935041280278 -20.7700466348098 7.5591986743601 -1.25749727118295 5.24429948724779 -7.61633570362773 -5.77286718058603 -6.35883843244478 -7.69364990005057 -26.3304392609589 28.1588193408305 30.7560234804352 32.8625757819421
0.0209500001445413 0.0600499968752265 0.00564999974519014 16 0.00264482537905386 -0.394711973877857 -0.179382791133442 0.433569744307261 -29.559494682189 1.16432024175398 -2.06513048161987 -5.72835845116359 10.2797402769924 -1.26904821430623 20.7312688842088 -3.7120507195076 -7.4055700712958 -2.44300250520137 -22.7963993658287 -6.89267869291757 23.9406162170186 105.021008579097 -116.314708191838
0.0237500001862645 0.0600499968752265 0.00564999974519014 16 -0.0858773454030355 -0.380416723811844 -0.0934513910704603 0.40102988006159 -35.0768585424633 -3.81576089149596 -1.64285174355156 18.4427839475421 12.8971120411402 -1.08597682568645 41.6355803078885 2.32039488639017 -8.18100059121328 3.40637171207662 -43.2784320514401 22.2585448390381 48.7859494877718 131.77713779648 -129.643420940093
0.0265500002279878 0.0600499968752265 0.00564999974519014 16 -0.202588661313057 -0.286672681567579 0.0671462843270395 0.35739616051196 -33.7610083455107 -9.32936025334026 -1.33426516206051 42.8792294705557 14.1601213287835 -1.10110067661601 51.4089888676105 10.3822093286701 -7.8468758164233 11.4833100052861 -52.743254029671 52.208589723896 75.0962988120853 34.6709273185982 155.806611653333
0.029350000269711 0.0600499968752265 0.00564999974519014 16 -0.284836139281591 -0.140074363205349 0.211495256872925 0.381421941094073 -23.1974393535925 -14.7461843209112 -0.965193218937196 53.5442302629707 13.6137186967311 -1.6007088908471 44.7171480289502 18.5495892790311 -6.7666857990148 20.1502981698782 -45.6823412478874 68.2904145838819 84.5960492118981 -177.966065975174 611.472881933556
0.0321500003114343 0.0600499968752265 0.00564999974519014 16 -0.341191360155741 0.00934981790293629 0.334563901757744 0.477945569808015 -10.8421395735479 -18.9829362536411 -0.534811418753497 39.7644711570522 11.8771936530887 -2.49299187954166 25.9404656304486 24.7187446069356 -5.54894487776514 27.2117364864772 -26.4752770492021 58.7474074106933 69.9476716904821 -693.851598794879 695.825658576851
0.0349500003531575 0.0600499968752265 0.00564999974519014 16 -0.35130997856458 0.0765958845475689 0.367403243112688 0.514072731837034 -3.19685286281876 -20.9763916739918 -0.209688317237141 25.3784190621233 10.4883225670752 -3.30854482103518 11.3056113135447 27.3213885532311 -5.11020092824358 30.6299333742663 -11.5152996307818 46.3548107361151 56.7411968721116 -514.684699632528 554.321852251082
-0.0350500006899238 0.0572499968335032 0.00564999974519014 16 0.116532714366913 -0.325934727242663 -0.137499289412905 0.372450499435191 -9.73439216299977 11.4720039961981 -5.10016335113884 -3.64929467091503 10.1351077794398 -0.433531569439007 8.98339134594221 -22.3936617331877 10.1479208122052 -21.9601301637487 -14.0835546970811 -15.1212986671131 30.1537311637299 38.8548910410265 -16.6195563526106
-0.0322500006482005 0.0572499968335032 0.00564999974519014 16 0.0874802943070729 -0.335342709949715 -0.108162948335521 0.3630520050917 -14.3819112050248 7.08138501392772 -4.55804503870938 -1.96355643904312 11.540359687409 0.230099194475875 14.5482083155082 -17.6456616778031 9.48149243915984 -17.8757608722789 -19.1062533542176 -9.04494145297083 27.6839793000595 115.962505382323 -108.638237114012
-0.0294500006064773 0.0572499968335032 0.00564999974519014 16 0.0298417945702871 -0.33416084514407 -0.0455886256244654 0.338573959301217 -25.5339037872647 -2.11358443596632 -3.50364635666454 10.0209602510883 14.0058434565293 1.55930959389593 27.4199504879856 -7.24881972257014 7.6478596417612 -8.80812931646607 -30.9235968446502 12.1345446870546 34.3671232230481 194.906303581934 -317.235737244615
-0.026650000564754 0.0572499968335032 0.00564999974519014 16 -0.0656727250417073 -0.273908914477397 0.0593704855705922 0.28786082540262 -30.3090458388201 -13.1526509793938 -2.39784689151473 31.1725585181483 15.8420504805338 2.99195273107949 36.3253185190318 6.26605839916189 5.12370588892735 3.2741056680824 -38.7231654105466 44.3252094975421 58.9485157093825 17.3730840599136 -75.9254796301374
-0.0238500005230308 0.0572499968335032 0.00564999974519014 16 -0.151116202672323 -0.153475571865953 0.173406675700777 0.276515339623823 -27.3161517909317 -21.9684803807512 -1.71727976375896 51.2401455940783 14.892461535843 3.90776805518608 37.4266729639331 18.4942705017573 3.05459868855852 14.5865024465712 -39.143952727692 73.2086259748295 84.2883029007828 -415.713948210902 672.914754011446
-0.0210500004813075 0.0572499968335032 0.00564999974519014 16 -0.227110710541407 0.0168134136828303 0.280927198679807 0.361638018853628 -14.4113666226192 -25.6064954345166 -1.70347266731308 60.2720573040298 10.3017516356663 4.05488587096341 25.22008807032 25.5967719455278 2.1856182157457 21.5418860745644 -26.9235607376331 85.8785527385465 92.5421892917486 -1353.93988832965 1325.08153292345
-0.0182500004395843 0.0572499968335032 0.00564999974519014 16 -0.234572024345398 0.18261955218312 0.319336530941849 0.436290906894741 5.48082208815742 -23.5766875340987 -2.11595225409736 56.2936947017922 3.32741386959657 3.54798717171527 2.32265737206918 26.6897967510655 2.13500393368737 23.1418095793503 -4.43860962616654 79.870382235891 83.2737807747897 -1191.67151259692 1274.48100758914
-0.015450000397861 0.0572499968335032 0.00564999974519014 16 -0.192298044761022 0.32539422165292 0.290089343090852 0.476457515922358 24.5400571643304 -17.426406072278 -2.4451945144867 41.0360133074764 -3.64892948366232 2.78487479753185 -21.2636921016805 23.0887188597881 2.09487357164197 20.3038440622562 18.8184975871938 58.4624193797544 64.6856739539592 -111.940309401806 553.036510081147
-0.0126500003561378 0.0572499968335032 0.00564999974519014 16 -0.0875188958644868 0.403513820475782 0.191180246033861 0.455008622909356 35.4208057169141 -9.48258949475554 -2.239730840968 17.6411481296587 -8.58179793949331 1.89383342588431 -34.0164903800922 16.9389490972975 1.72234857468357 15.0451156714132 31.7767595391242 27.1237376244142 44.4051246489815 9.95412586396158 -198.731635401115
-0.0098500003144145 0.0572499968335032 0.00564999974519014 16 0.0186159451802572 0.416360409460031 0.0876250924852987 0.425888131806623 32.513426575787 -1.43132376761346 -1.46705905184275 -5.55779834395025 -10.9168821500418 0.838684167990709 -32.1812229407898 9.53179742345123 0.936229763770384 8.69311325546052 30.7141638889471 -4.12647457633679 32.1862994750642 141.157619531473 -397.88684940743
-0.00705000027269125 0.0572499968335032 0.00564999974519014 16 0.107275018692017 0.367117269776063 -0.00314209483641512 0.382482538376805 21.0298132742969 5.66698537293406 -0.544673834926923 -22.3344702700739 -10.864992330594 -0.13051799967585 -21.9327076348142 1.93219523126083 0.119472612190443 2.06271323093668 21.3880337998872 -28.001455643008 35.2956696186026 42.2076468025353 -112.399211616946
-0.004250000230968 0.0572499968335032 0.00564999974519014 16 0.146802519957224 0.288937243178176 -0.0486908536264673 0.32772932366218 9.37323712391656 11.3063968570689 0.253763258933281 -29.5045321659689 -9.03731023710801 -0.703217802044705 -14.4803824584417 -4.89611523309229 -0.800693357714206 -4.19289743104758 14.7341457173749 -40.8109290230378 43.5913680286768 -248.88272767777 248.843677159323
-0.00145000018924474 0.0572499968335032 0.00564999974519014 16 0.167081753412883 0.202207323722541 -0.0965102748640735 0.279496596123987 4.85288819960848 15.4154612972684 0.884676445397441 -30.2666046396347 -6.38772579183565 -0.660908828736188 -13.3119421512908 -10.8186768915669 -1.85524688242395 -10.1577680628307 14.1966185966882 -45.6820659369031 48.9037358477005 -416.35100177262 443.048858553346
0.0013499998524785 0.0572499968335032 0.00564999974519014 16 0.177878669500351 0.121933367181142 -0.13184767901068 0.252769415784128 5.52389890239218 18.1033878003526 1.32405332844519 -29.0511303596984 -3.71222943341372 -0.134158790203734 -13.9157849450919 -16.2041339907479 -2.67788287910903 -16.0699752005441 15.2398382735371 -47.154518160051 52.0965004242727 -522.235874167734 516.817774555951
0.00414999989420176 0.0572499968335032 0.00564999974519014 16 0.199803953965505 0.042604875054288 -0.180767060605188 0.272788426437928 6.60307187622654 19.7812341576489 1.51465062810718 -28.5011626251115 -1.57130611617822 0.481234299164005 -11.1689118921123 -21.113490908742 -3.03138636409332 -21.594725207906 12.6835625202195 -48.2823967827604 54.391127531034 -584.051565092687 565.237033728596
0.006949999935925 0.0572499968335032 0.00564999974519014 16 0.214791688919067 -0.035556964937908 -0.196878539405395 0.293531815418197 0.981031290405095 20.6492751420717 1.12562286098934 -29.4871507292959 0.238695060501974 0.885864141795193 -2.66984273312259 -24.4465937111677 -2.81330086916821 -25.3324578529629 3.79546559411192 -50.1364258713675 56.3009784915268 -630.101925735363 630.352595458442
0.00974999997764826 0.0572499968335032 0.00564999974519014 16 0.203349592685699 -0.121654568224621 -0.194451645887069 0.306532760734557 -6.99735529464543 20.5824439436448 0.169410607248804 -30.9137466151709 1.99158903638541 0.868996914909432 2.00777758496781 -25.0480920906314 -2.70623973246033 -25.9170890055409 -1.83836697771901 -51.4961905588157 57.6795695002637 -654.747079234279 657.317980177033
0.0125500000193715 0.0572499968335032 0.00564999974519014 16 0.172277699708939 -0.209332938955243 -0.18257952295399 0.326856493511677 -14.6227357829297 19.0278265214266 -1.02016017804303 -31.1629031301371 3.73308161143389 0.468123810410186 1.96586185835075 -23.0042602739383 -3.17900162803978 -23.4723840843485 -2.98602203639378 -50.1907296515637 55.488543728966 -541.991695156373 585.767012902663
0.0153500000610948 0.0572499968335032 0.00564999974519014 16 0.116756205956141 -0.296913051149653 -0.181994380140289 0.367302771531767 -17.2591467580563 15.524407969217 -1.9585384207614 -29.3627292205189 5.67363531668065 -0.109456735455975 -1.6481429617966 -19.8223106570767 -4.32384374214869 -19.7128539216207 -0.310395458964798 -44.8871371897359 49.0259935153412 -338.700324429138 402.613187344783
0.018150000102818 0.0572499968335032 0.00564999974519014 16 0.070698934396108 -0.373857170705354 -0.193334415167859 0.426785331871721 -19.7224091342253 10.0381326445033 -2.34093553490607 -22.8037533023527 8.3441277923584 -0.531497285500854 2.43179011340473 -15.9232100834958 -5.70715259343909 -15.3917127979949 -4.7727256483108 -32.841885946856 36.5824166166794 -76.3990257201671 126.507907075574
0.0209500001445413 0.0572499968335032 0.00564999974519014 16 -0.000412138700485176 -0.422662400832244 -0.167494878898233 0.454640747615872 -24.7353512507991 2.74635123815799 -2.40003926030169 -8.58827322824605 12.3309020361064 -0.669907044056782 16.0246290959687 -9.70548924945262 -6.69873814060166 -9.03558220539583 -18.4246683562704 -11.334624466404 23.4432050202915 132.878132003032 -166.370657872762
0.0237500001862645 0.0572499968335032 0.00564999974519014 16 -0.077323933839798 -0.417208949467167 -0.0960919211075331 0.435058565669147 -29.4996498989969 -5.99497379228156 -2.43886324623786 15.6172936443252 17.1438498616898 -0.737510029998241 33.7836576118665 0.842258032843577 -6.84413710122071 1.57976806284182 -36.2225208581044 21.6122674366068 42.2096764758935 233.773045428108 -244.532618665988
0.0265500002279878 0.0572499968335032 0.00564999974519014 16 -0.177373394568761 -0.327549968984288 0.0386094399855695 0.374487639500228 -28.2083871340637 -15.2869371932468 -2.51173081479872 41.0278630523453 21.3997034872359 -1.13995298732348 42.745966421127 14.6699316945891 -6.04644919678114 15.8098846819126 -45.2576972359258 56.3148002455921 73.9565300663507 10.6730527289557 188.796998427082
0.029350000269711 0.0572499968335032 0.00564999974519014 16 -0.24499812801679 -0.179044233506235 0.161743296175458 0.343863074698736 -18.8986495455071 -23.3327401902556 -2.36177353571763 53.093687945575 23.8837464335262 -2.099769061285 37.9480843021223 27.3795578844468 -4.64559399734438 29.4793269457318 -40.3098578378399 76.4264281358305 91.2957516737853 -780.168231822035 911.407466509833
0.0321500003114343 0.0572499968335032 0.00564999974519014 16 -0.287344544728597 -0.0241258695201638 0.263062944256041 0.390321736015361 -8.47832599941357 -28.583092928232 -1.99087593576141 40.187235361333 24.4903662278554 -3.30700345411879 22.6118065881272 35.4208955442946 -3.19165303510294 38.7278989984134 -24.6026825238886 68.7703282895649 82.6710360480446 -665.172471499461 1052.08762285698
0.0349500003531575 0.0572499968335032 0.00564999974519014 16 -0.291918559869131 0.0497388101757194 0.291325210251574 0.415404348751776 -2.18859994035824 -30.6185056697362 -1.65876468152701 25.9172538139477 24.3509474683043 -4.1990806105764 10.5217551111313 38.143292005322 -2.55878736720213 42.3423726158984 -12.1805197926583 56.5357594836839 71.6765908896334 -341.916019193662 861.164239436624
-0.0350500006899238 0.05444999679178 0.00564999974519014 16 0.0662150442600251 -0.360001249734002 -0.035168647308213 0.367725666291992 -4.14341505769815 19.3441755039943 -4.11450142443805 -5.03547395397906 11.0813774985543 -0.35146037742796 3.28872357607097 -33.5551606588759 8.14559262022808 -33.2037002814479 -7.40322500050902 -24.3796494579734 41.8528465039362 -8.04433534808169 109.744309590176
-0.0322500006482005 0.05444999679178 0.00564999974519014 16 0.0540706674257914 -0.374561029744595 -0.0275427580073787 0.379444601487298 -5.2651253350427 12.754349581182 -3.67248806774457 -3.86901273239105 12.0436416449544 0.245660535944688 4.77071814969656 -26.6274479584917 7.73967109579604 -26.8731084944364 -8.44320621744113 -16.623362313573 32.7076117439398 9.70469898291175 62.4606635437959
-0.0294500006064773 0.05444999679178 0.00564999974519014 16 0.036008669535319 -0.382399794554609 -0.0127546933929746 0.384303147737122 -11.6050940288152 -1.09627659735569 -2.76242972980579 7.22475854085847 14.2798158794118 1.54861862114792 11.5635286642863 -11.3903779242136 6.48318651770189 -12.9389965453616 -14.325958394092 8.32103513821416 21.0211879131872 85.3018367642556 -90.874764925427
-0.026650000564754 0.05444999679178 0.00564999974519014 16 -0.0123656400044758 -0.332804041156002 0.0323574277603378 0.334601915705442 -16.3378505410456 -17.9572151101523 -1.83345828843781 29.337195757651 17.0751733261345 3.09344882233948 18.8055150905464 8.47096920623916 4.71167978345299 5.37752038389968 -20.6389733789842 47.2944108678034 51.8810779277982 -221.280781487745 259.591351840327
-0.0238500005230308 0.05444999679178 0.00564999974519014 16 -0.0575490287939708 -0.214279374157389 0.0872421760620394 0.238408762818088 -18.2859516860438 -32.1427811114572 -1.31925641411516 52.6209651906808 18.4793054347201 4.21161794850313 24.4221968856033 26.767036610459 3.32459238617178 22.5554186619559 -25.7414532997184 84.7637463021381 91.4125922188563 -1229.25210915654 1273.60191009868
-0.0210500004813075 0.05444999679178 0.00564999974519014 16 -0.118696769873301 -0.0311165066053703 0.167814520533818 0.207891494447639 -12.646470261063 -39.2998625241358 -1.40011759073786 65.2297592092508 16.7314938330732 4.46315030779239 19.5270770386687 38.3620222766696 2.92212619986795 33.8988719688772 -20.9271946294065 104.529621733387 111.863858397359 -2105.8972784421 2219.98791715565
-0.0182500004395843 0.05444999679178 0.00564999974519014 16 -0.133378618955612 0.158848853628539 0.201596822822466 0.28924746025803 0.278254174398526 -37.8919988723511 -1.75534081468825 63.2330382915386 11.8087861041756 3.82269459724229 3.6977152160965 41.5869506587559 2.92887650927735 37.7642560615136 -5.45305603078475 101.12503716389 108.083985850599 -2116.70161799672 2282.23004684588
-0.015450000397861 0.05444999679178 0.00564999974519014 16 -0.120042372941971 0.330165592575601 0.194662437781129 0.401637839981779 14.8813580384506 -29.1810132945331 -1.91125286822068 47.557343427618 5.32445574754663 2.84471979529956 -14.8682598950202 37.4175384993457 2.58747931202721 34.5728187040461 12.9570070267995 76.7383567221511 85.1583185405365 -1321.89575785007 1384.42931147679
-0.0126500003561378 0.05444999679178 0.00564999974519014 16 -0.0484403133392335 0.429582496239182 0.120762487577522 0.44885539256803 24.1286477706487 -16.1739727999104 -1.55038616660229 22.0455834930453 -0.668441280150505 1.86981715736847 -24.8250160585671 27.9804017336509 1.95268460994175 26.1105845762824 23.2746298919648 38.2195562929556 51.8093187250474 165.887457946164 295.43987101608
-0.0098500003144145 0.05444999679178 0.00564999974519014 16 0.0218068075180053 0.452775688843491 0.0520300838149463 0.456276770046006 21.6149653975115 -2.03461940251148 -0.745618899905963 -3.42907486751158 -4.86651590942725 1.05168085236207 -21.2227185757384 15.2375747209206 1.37104535928497 14.1858938685586 20.4770996758325 -1.3944554650001 24.9498637677214 48.4805749263272 -121.05267694884
-0.00705000027269125 0.05444999679178 0.00564999974519014 16 0.0807051388422648 0.406623379409769 -0.00382519017245311 0.414572700738997 12.0748228944687 10.7205230150447 0.0343375168945882 -22.7629914180321 -6.61860805735557 0.524910885523808 -11.5024918780067 1.44845679125222 1.16024962505943 0.923545905728407 11.5368293949013 -33.4835144330769 35.4273497218902 -108.970873037388 170.077880779063
-0.004250000230968 0.05444999679178 0.00564999974519014 16 0.0964084084828694 0.32080256500553 -0.0180879863481581 0.33546392084762 2.50333397806872 20.906005056586 0.541494548057232 -31.5346924293742 -5.9876087394781 0.280025308575824 -5.12867553153938 -11.5051554281044 0.855323071597797 -11.7851807366802 5.67017007959662 -52.4406974859602 54.046906169935 -621.516481241678 647.294158928295
-0.00145000018924474 0.05444999679178 0.00564999974519014 16 0.100630962053935 0.226822500096362 -0.0403530269605108 0.251402871619917 0.185702348110409 28.3340296137324 0.835603081720455 -32.9589769346325 -3.91466062634733 0.318831865784552 -5.30058040234887 -22.945662445474 0.10602202681256 -23.2644943112585 6.13618348406933 -61.2930065483649 65.8462003083447 -926.394767401166 944.483304807537
0.0013499998524785 0.05444999679178 0.00564999974519014 16 0.102748368581136 0.133910143690009 -0.0570377327142827 0.178164128775547 2.57826190561754 33.2589259589209 1.08879950226434 -31.4461038126534 -1.50281123681644 0.496473113404412 -6.54222437357761 -32.9451276667492 -0.806122778337026 -33.4416007801536 7.63102387584195 -64.7050297715744 73.2346507185852 -1064.75130974572 1064.60159290314
0.00414999989420176 0.05444999679178 0.00564999974519014 16 0.119618135690689 0.0488634457873801 -0.0854022868878868 0.154886039803506 5.12130247514349 36.0084859994823 1.38367002630726 -30.0956936790089 0.345769952800461 0.759144562785431 -5.67521124506854 -40.9030319673131 -1.58566551624104 -41.6621765300985 7.0588812713758 -66.1041796784912 78.4558941635026 -1117.71890157594 1115.70614278881
0.006949999935925 0.05444999679178 0.00564999974519014 16 0.133200059731801 -0.0361536683444865 -0.0929851812015598 0.166419913383001 0.970998823601826 36.6322468829458 1.39592989440863 -30.9408125692423 1.58396166996403 1.09469776189161 -0.705878435080943 -45.0275941099728 -2.07510380490839 -46.1222918718644 2.10180832948958 -67.5730594521881 81.8400987871857 -1180.48529557922 1179.94466477691
0.00974999997764826 0.05444999679178 0.00564999974519014 16 0.122442704836528 -0.12619363753746 -0.0892568266721598 0.197189835514422 -5.37566147894454 35.0874167324751 0.888991644220106 -31.9825694403038 2.35355235915986 1.34750219190959 -0.333877309530325 -44.0484051340527 -2.71549195957137 -45.3959073259622 1.22286895375043 -67.0699861727789 80.9979435272411 -1175.43283700191 1177.39249099379
0.0125500000193715 0.05444999679178 0.00564999974519014 16 0.0970095360279084 -0.218277885781912 -0.0920228372248433 0.255977124119874 -10.668507219043 31.0661117751056 -0.124716455298478 -32.2094985309321 2.72747801003931 1.34967230634462 -2.92891008440269 -38.8558101134942 -3.68814422132296 -40.2054824198388 2.80419362910422 -63.2756103060377 75.0209782535727 -1044.59438538462 1052.89075129785
0.0153500000610948 0.05444999679178 0.00564999974519014 16 0.0545675988992056 -0.311367775086934 -0.100368843486261 0.331664618183764 -11.1075396043973 24.4636946097695 -1.30574528310933 -30.6515003324704 3.1222908175391 1.0498316434154 -6.6237941642386 -32.1673365851604 -4.74874601389358 -33.2171682285758 5.31804888112927 -55.11519494224 64.5704779488947 -758.903209439429 778.20919274434
0.018150000102818 0.05444999679178 0.00564999974519014 16 0.027288335164388 -0.396385501883148 -0.122713206673119 0.415842097954498 -11.1920277442966 15.2679813908956 -2.27708259663501 -25.4409798988927 4.37779605035286 0.697597192879883 -3.95814872663348 -24.7008471162611 -5.43557720582257 -25.398444309141 1.68106612999847 -40.7089612897883 48.0117327947185 -375.47134383071 384.693485308564
0.0209500001445413 0.05444999679178 0.00564999974519014 16 -0.0146450916926066 -0.460282616846574 -0.115878887307675 0.47487101680928 -14.1740516554351 3.46808181194816 -3.06390773906448 -13.2821956741307 7.72217084902944 0.384709134358302 5.79306764701503 -14.2970676613124 -5.31954261913638 -14.6817767956707 -8.85697538607951 -16.7502774860788 23.9702394382733 -5.68643118392832 -5.82001502232747
0.0237500001862645 0.05444999679178 0.00564999974519014 16 -0.0575950892766317 -0.476415999991004 -0.0852516783271373 0.487398448924292 -17.32570924775 -10.5258334042232 -3.80420202840777 9.74933243906942 13.4711066745865 -0.136519354466645 17.5176321372769 1.65277197993468 -4.33211383787108 1.78929133440133 -21.3218341656847 20.2751658432926 29.4771865285909 96.9294952633221 -47.2118042132698