TITLE="DynamicStudio Exported Data"
VARIABLES= "X (m)[m]" "Y (m)[m]" "Z (m)[m]" "Status[-]" "U[m/s]" "V[m/s]" "W[m/s]" "Length[m/s]" "dU/dX[1/s]" "dU/dY[1/s]" "dU/dZ[1/s]" "dV/dX[1/s]" "dV/dY[1/s]" "dV/dZ[1/s]" "dW/dX[1/s]" "dW/dY[1/s]" "dW/dZ[1/s]" "Vorticity X[1/s]" "Vorticity Y[1/s]" "Vorticity Z[1/s]" "Vorticity Magnitude[1/s]" "Lambda-2[1/s²]" "Q-Criterion[1/s²]"
ZONE T="DynamicStudio Data" I=26 J=26 F=POINT
-0.0350500006899238 0.0600499968752265 0.00564999974519014 16 -0.329299818078677 -0.162044415891093 0.25453679464059 0.446638268326888 6.96525705267247 -25.5995393478749 2.22615936912996 25.8504256967455 6.76131264307067 4.37269699573364 10.7764951113186 26.2582220199138 -3.06749828476002 21.8855250241802 -8.55033574218862 51.4499650446204 56.5613237997558 -480.806141824375 527.937597260064
-0.0322500006482005 0.0600499968752265 0.00564999974519014 16 -0.310331195394198 -0.0918117036266873 0.286881834051261 0.432476619560228 11.924268529711 -25.7821879691363 2.63775800755601 40.7676134583878 4.61088117955158 3.83137508040558 7.50318682761428 26.4062343259691 -2.63321600007849 22.5748592455635 -4.86542882005827 66.5498014275242 70.4426911581532 -836.139429144872 941.555258502091
-0.0294500006064773 0.0600499968752265 0.00564999974519014 16 -0.261225653489431 0.0579304807080189 0.296350329074388 0.399272213131017 19.7278577240241 -24.8627806132381 3.56237211292948 61.1808162709159 0.688920136413856 2.84067564649553 5.83128393264039 26.1311403885276 -2.27015501010011 23.2904647420321 -2.26891181971091 86.043596884154 89.1689086706138 -1134.85057865701 1393.36358318597
-0.026650000564754 0.0600499968752265 0.00564999974519014 16 -0.194171523253123 0.241438987066116 0.318865843452513 0.444601834272681 23.102415383307 -21.1265456626878 4.40281479903222 57.5956751644388 -2.85730680569603 1.99017786734671 -5.7094668683654 23.8571042911184 -1.80521828610537 21.8669264237717 10.1122816673976 78.7222208271266 82.3262337514495 -860.880368853995 1091.89797670707
-0.0238500005230308 0.0600499968752265 0.00564999974519014 16 -0.120553018252055 0.374233103448447 0.257581422342143 0.470033653116602 22.9405726834762 -14.44144577502 4.72251493838138 32.8220676517413 -4.83453898301229 1.69356027978883 -19.7534692166882 18.9869344683914 -2.10789550487423 17.2933741886026 24.4759841550695 47.2635134267612 55.9640446414292 -190.316909902694 386.055925647502
-0.0210500004813075 0.0600499968752265 0.00564999974519014 16 -0.0511773757139842 0.423552321837172 0.195514195941699 0.469298938772888 21.9838764179515 -6.48816765803323 4.27979212677034 2.15925287429041 -5.12135280389726 1.81565105509319 -27.468799804965 12.8343351198405 -2.83479278942209 11.0186840647473 31.7485919317353 8.64742053232364 34.7010427801445 32.5182119566447 -52.1212737863397
-0.0182500004395843 0.0600499968752265 0.00564999974519014 16 0.0157239441076915 0.387514717037557 0.0910136357225322 0.398369652742818 21.4269801067849 0.496692321297748 3.18517131449076 -18.6210357821228 -4.5145718168073 1.86721561097019 -32.0943310686039 6.98130349101343 -3.60444609314389 5.11408788004324 35.2795023830947 -19.1177281034205 40.4510161934148 63.0184297729648 -59.2542351941092
-0.015450000397861 0.0600499968752265 0.00564999974519014 16 0.0774042089780171 0.320280379874554 0.00412273649747173 0.329526827824881 20.2224695791291 5.1650703484578 1.70528324411199 -25.6389200952362 -3.692803708798 1.57620946401731 -32.3305944993636 2.0923192022525 -4.08339001945121 0.51610973823519 34.0358777434756 -30.803990443694 45.9085304740406 32.3038776377949 42.087030391356
-0.0126500003561378 0.0600499968752265 0.00564999974519014 16 0.132096672058105 0.244506055405388 -0.0982030196476262 0.29474832479022 15.865981626237 7.68225897068486 0.300792552897391 -26.1686738142691 -2.87121784201828 1.00685521426417 -31.7496885154261 -2.26165465545917 -4.13062975721765 -3.26850986972334 32.0504810683235 -33.8509327849539 46.7311688692987 21.2190671862141 113.630510304067
-0.0098500003144145 0.0600499968752265 0.00564999974519014 16 0.167077071666718 0.173727443190292 -0.181805237210744 0.301909119887784 7.09408349454863 8.93507625543177 -0.700637403901579 -28.2961728157362 -2.1280630544992 0.408567004884854 -24.2799826865891 -6.35578737010301 -3.93143089317147 -6.76435437498787 23.5793452826875 -37.2312490711679 44.5859610356215 -187.452025955684 203.793539654246
-0.00705000027269125 0.0600499968752265 0.00564999974519014 16 0.17178191502889 0.0863457117342235 -0.240352870732119 0.307789068576279 -1.68433839695007 9.70145979306244 -1.24379836889504 -32.5227980638859 -1.33178603241924 -0.0336731245833153 -15.6898139371064 -10.0110248764034 -3.14070033759233 -9.97735175182007 14.4460155682114 -42.2242578569483 45.7287968937148 -288.214591454349 307.382471668035
-0.004250000230968 0.0600499968752265 0.00564999974519014 16 0.158566064834595 -0.00740153554424372 -0.273921234734977 0.316592518048478 -6.77928617223819 10.0282914388316 -1.32927638345663 -35.0749073614986 -0.313178362449965 -0.254056061171041 -9.17073741435581 -12.4891678664495 -1.71596513449443 -12.2351118052785 7.84146103089917 -45.1031988003302 47.3865488721102 -296.3481291727 350.671547353053
-0.00145000018924474 0.0600499968752265 0.00564999974519014 16 0.133989652792613 -0.107915811752124 -0.291222542106407 0.338244909071109 -6.23135885409209 9.45383827232371 -1.08213268145343 -31.7496088072154 1.08684342299517 -0.323893683784082 -7.08039569580109 -13.2429987827946 0.114669706643829 -12.9191050990105 5.99826301434766 -41.2034470795391 43.5959457631664 -258.637071869759 280.841984170601
0.0013499998524785 0.0600499968752265 0.00564999974519014 16 0.122457129955292 -0.182222564669598 -0.310107146729715 0.379956910983993 -5.29943572926195 7.70329370969166 -0.425905444122484 -25.9193187698163 3.05849420041235 -0.442416829963714 -2.27730795211044 -12.5380179468419 1.46080700248974 -12.0956011168781 1.85140250798796 -33.622612479508 35.7800409107141 -171.722848046115 173.665300709283
0.00414999989420176 0.0600499968752265 0.00564999974519014 16 0.101624524593353 -0.249102434291077 -0.300223528321755 0.403129921646272 -11.3419192143516 4.62702547238399 0.212489018036547 -22.3407362290216 5.79762643345736 -0.910631016618009 12.3238260149815 -10.5849410813762 1.70862492895141 -9.67431006475814 -12.1113369969449 -26.9677617014056 31.1052556695238 -6.16123861394822 15.8841747552389
0.006949999935925 0.0600499968752265 0.00564999974519014 16 0.0526012464364369 -0.302947641887392 -0.23720221628435 0.388341417134466 -22.7586780195679 0.290309266843152 0.48763576227496 -20.4312649103521 9.22810634958962 -1.86624377752669 30.4882537896201 -7.19991541416768 0.433578555917059 -5.33367163664099 -30.0006180273452 -20.7215741771952 36.8492709769295 69.8040150870194 -238.258641546782
0.00974999997764826 0.0600499968752265 0.00564999974519014 16 -0.0346831242243448 -0.358850865221272 -0.126000284295684 0.3819069706337 -36.1444165678807 -5.34810870012335 0.301715372335327 -12.3499454147428 12.5763635733592 -2.99520290579181 47.1892578178724 -1.57402857420681 -1.952761384604 1.421174331585 -46.8875424455371 -7.00183671461945 47.4287580529049 215.428650440338 -493.543650077259
0.0125500000193715 0.0600499968752265 0.00564999974519014 16 -0.162808879613876 -0.368545753525254 0.0356575224401119 0.404480114009564 -40.1198864785248 -11.8936269412678 -0.0320147540793969 7.46325510908123 14.2886011741353 -3.79084927573629 50.9958492489434 6.25991142609346 -4.2301432462132 10.0507607018298 -51.0278640030228 19.356882050349 55.4936895341043 187.407578132535 -349.858847668379
0.0153500000610948 0.0600499968752265 0.00564999974519014 16 -0.272227844794591 -0.317127841367231 0.172329922075151 0.452079273241071 -34.157028647983 -17.7863731990869 -0.0548122886028426 33.0550378562155 13.0562390069139 -3.85028643466636 43.5195475283527 14.4880180250525 -4.9918176099891 18.3383044597189 -43.5743598169556 50.8414110553024 69.4252642919642 -3.02770200501582 305.466628207539
0.018150000102818 0.0600499968752265 0.00564999974519014 16 -0.363400697906812 -0.188025076175109 0.295341770197847 0.504618923281134 -18.7887941993826 -21.0367392629587 -0.031718646723531 51.7568725904042 9.03885923446359 -3.0736033173244 23.672274924964 20.5787461305858 -3.30101691942918 23.6523494479102 -23.7039935716876 72.7936118533629 80.1262932645129 -819.038501931226 1015.15302297835
0.0209500001445413 0.0600499968752265 0.00564999974519014 16 -0.380189132293065 -0.0345152083656285 0.318758989362201 0.497335268427133 0.980694908522479 -20.3569050091871 -0.37811682957 55.6248107258005 3.65468189149406 -1.72233576573835 -4.90572887202759 22.770725846315 -0.079971520841005 24.4930616120533 4.52761204245759 75.9817157349876 79.960180489862 -1159.49862172832 1172.92631477913
0.0237500001862645 0.0600499968752265 0.00564999974519014 16 -0.353945539792379 0.115948458289883 0.274847467333699 0.462885104986613 20.3744438786694 -15.9017519577603 -1.2896622974606 46.5842026062335 -1.35952748511949 -0.136983084589155 -33.7964159126058 20.678236972418 2.9422545429294 20.8152200570071 32.5067536151452 62.4859545639939 73.4469668154573 -237.57539897957 728.26414798221
0.0265500002279878 0.0600499968752265 0.00564999974519014 16 -0.256907327771187 0.221343055369944 0.126603236243257 0.3619703063102 36.1205476122887 -8.86550130386991 -2.15995268308999 30.7360306594517 -5.04542381505883 1.04074607882987 -53.4213375906073 14.7328071397878 3.81641127802214 13.692061060958 51.2613849075173 39.6015319633216 66.207880592688 12.9875247938396 78.1216289528496
0.029350000269711 0.0600499968752265 0.00564999974519014 16 -0.13782664736112 0.283762061741436 -0.0400007079522281 0.317989227872952 39.6655728106781 -1.13303358086967 -2.37794745540556 15.7814463970221 -7.36286385428324 1.34409690202038 -52.4297729761188 6.71289534263224 2.02173746654142 5.36879844061186 50.0518255207132 16.9144799778918 53.1046972270282 44.5891700960389 -342.561733686406
0.0321500003114343 0.0600499968752265 0.00564999974519014 16 -0.0203895060221355 0.306234357440068 -0.187974253559563 0.359902116739861 28.4968591646301 5.06700891842404 -2.00105017942422 5.3336130501278 -8.49366396652043 1.0209526694705 -34.0589576118375 -0.375589454379793 -0.913942083637803 -1.39654212385029 32.0579074324132 0.266604131703763 32.089419387267 94.7262250742313 -355.120196820916
0.0349500003531575 0.0600499968752265 0.00564999974519014 16 0.0321878556410471 0.311302770660259 -0.247322570156927 0.398890870766116 17.7240223520458 7.97479014648681 -1.63949019143634 2.35411340829848 -8.92447451673542 0.635162441097311 -19.3960926705192 -3.84635456206914 -2.76438507094157 -4.48151700316645 17.7566024790829 -5.62067673818833 19.1565376110886 97.2388208953979 -230.633128626598
-0.0350500006899238 0.0572499968335032 0.00564999974519014 16 -0.258589475154877 -0.181707758954241 0.179573906759809 0.363501051324515 7.54479896565222 -40.3140527649093 1.63769815337681 26.6613433480852 3.01421355826266 5.14468921370477 8.80841288330861 29.4093650554371 -2.89255804988064 24.2646758417323 -7.1707147299318 66.9753961129944 71.5953722522267 -933.68791572144 901.298316484074
-0.0322500006482005 0.0572499968335032 0.00564999974519014 16 -0.237919938961665 -0.106384974947675 0.21200218942482 0.335959206706792 11.9774141205026 -40.499496119607 1.98726064801749 42.8930970511123 1.33523456959802 4.39067887547522 5.49607516295935 32.0231666940769 -2.0971668571008 27.6324878186017 -3.50881451494186 83.3925931707192 87.9215033884347 -1566.2162325788 1573.69705393503
-0.0294500006064773 0.0572499968335032 0.00564999974519014 16 -0.189865932861964 0.0580791389808292 0.222467139333797 0.298184317041761 17.6793707856819 -38.8106238906891 2.83896894886498 63.6627483571611 -1.96486076165904 3.00234351055614 4.7063519785454 35.246908291974 -1.23322325445766 32.2445647814178 -1.86738302968042 102.47337224785 107.442966718018 -2200.15329898875 2297.48946768863
-0.026650000564754 0.0572499968335032 0.00564999974519014 16 -0.132999747594198 0.249014763682317 0.249599264439506 0.376824996783152 17.803191181544 -32.7083244007673 3.7396273240219 59.2730280140828 -4.94207005017826 1.69957562207161 -3.60059906334444 35.0209844735177 -0.533240017467408 33.3214088514461 7.34022638736634 91.9813524148501 98.1058836325726 -1769.13282764409 1797.82283327573
-0.0238500005230308 0.0572499968335032 0.00564999974519014 16 -0.079489181836446 0.389492284064375 0.205693677077749 0.447585364108878 15.5390656233399 -22.2359597680906 4.284261271734 33.4346648797793 -6.57294273542153 1.10799047413064 -14.9146899925925 29.6967273853101 -0.948076744163865 28.5887369111795 19.1989512643265 55.6706246478698 65.4609353470498 -683.392073981955 663.808639686246
-0.0210500004813075 0.0572499968335032 0.00564999974519014 16 -0.0336072115103403 0.436465688492608 0.159446517677667 0.465891547354491 14.6136202933632 -10.1152892890281 4.12497807888437 1.82347719432589 -6.75415967653337 1.18294564999545 -21.5768057368911 21.0168205426575 -1.97550715963044 19.833874892662 25.7017838157755 11.938766483354 34.5904384146065 52.4910157541871 -31.6420520610819
-0.0182500004395843 0.0572499968335032 0.00564999974519014 16 0.0123483228683472 0.400305072832077 0.0742099110068133 0.407312832236347 15.7972098176857 0.55645046488246 3.26967856276374 -19.2115001077119 -6.03018000000974 1.39387024326406 -26.6833589745558 11.6648649234779 -2.96891206765066 10.2709946802138 29.9530375373196 -19.7679505725943 37.328938630419 92.4441942794275 -42.5805245102381
-0.015450000397861 0.0572499968335032 0.00564999974519014 16 0.0618808368841808 0.329653122533734 -0.00243195484081904 0.335419638026868 16.635291065956 8.21727325810132 1.96846816416452 -26.6172585175541 -4.73529995477242 1.33918112342273 -27.543027753411 3.09598751306406 -3.51900900061448 1.75680638964133 29.5114959175755 -34.8345317756555 45.6887225036213 -6.01708733076029 148.143503001973
-0.0126500003561378 0.0572499968335032 0.00564999974519014 16 0.110087667703628 0.252852307266439 -0.0903983245704633 0.290216196921421 13.7841425910826 13.047227932353 0.69154837867864 -27.1527092183271 -3.04678808398962 0.970026305596575 -27.3042777371003 -4.6856653919772 -3.60238732805954 -5.65569169757378 27.9958261157789 -40.1999371506801 49.3131633075953 -143.741675834463 297.017562634182
-0.0098500003144145 0.0572499968335032 0.00564999974519014 16 0.142606004079183 0.179484726390801 -0.164612316867958 0.282220577335618 6.09456224243854 15.7109824580352 -0.233639400696171 -29.0962602786844 -1.51038347948971 0.48335201477965 -20.6701011470837 -11.3762468049271 -3.59347661284488 -11.8595988197068 20.4364617463875 -44.8072427367196 50.6555826592021 -457.943713788619 432.121951302837
-0.00705000027269125 0.0572499968335032 0.00564999974519014 16 0.145159373283386 0.0907369990565348 -0.211129775867642 0.271809177379521 -1.972436591684 16.743140725669 -0.779830120591588 -32.9727664828768 -0.525753271577216 0.0489953385981359 -13.1794870705714 -16.2780427088674 -3.13807600472359 -16.3270380474656 12.3996569499798 -49.7159072085458 53.7772730198297 -536.882192983458 551.463981216285
-0.004250000230968 0.0572499968335032 0.00564999974519014 16 0.129986142317454 -0.00653313611478855 -0.237985579282977 0.271249359462325 -6.28777129874115 16.4307801649828 -0.930314922945416 -35.5312982947629 0.0410701906882102 -0.234539202886672 -8.16059719502783 -18.9724621313817 -2.01322128182464 -18.7379229284951 7.23028227208241 -51.9620784597457 55.708566085163 -546.681204712198 584.08299140759
-0.00145000018924474 0.0572499968335032 0.00564999974519014 16 0.107239524523417 -0.110573890991509 -0.25348541007125 0.296617184444867 -4.97445229656391 14.8738431227935 -0.75896418453807 -32.6847978047361 0.965976192991539 -0.354137580071798 -6.94789777886912 -19.8638232955267 -0.224165802450388 -19.5096857154549 6.18893359433105 -47.5586409275297 51.7760085621185 -457.895552559216 469.934183933735
0.0013499998524785 0.0572499968335032 0.00564999974519014 16 0.0998975551128387 -0.190491210591475 -0.274034708133986 0.348369694566286 -3.07933960311035 11.9803552933244 -0.180314664836005 -27.7806169070598 3.10524640195006 -0.456194249331014 -3.12937579340622 -19.3792469831471 1.40246577474297 -18.9230527338161 2.94906112857021 -39.7609722003842 44.1329105841271 -313.777722225327 313.890912612666
0.00414999989420176 0.0572499968335032 0.00564999974519014 16 0.0879086311658224 -0.264765970174146 -0.26919517048945 0.387678973134408 -7.69525553267128 7.13901823126178 0.452764627118873 -25.0528642870483 6.76562851953858 -0.846092850934356 9.78734005370876 -16.6417188024005 2.00475801170136 -15.7956259514662 -9.33457542658989 -32.1918825183101 37.0533857787113 -118.525249797892 106.414136715241
0.006949999935925 0.0572499968335032 0.00564999974519014 16 0.0512457227706908 -0.32848866692589 -0.214575769386817 0.395693933753075 -17.5335441365097 -0.287207264963101 0.823605598228512 -23.4485214358976 11.3515197977334 -1.69651512053688 25.5526337324716 -10.2979546730488 0.930007139180827 -8.60143955251188 -24.7290281342431 -23.1613141709345 34.9564882241399 160.777120837262 -250.032213873683
0.00974999997764826 0.0572499968335032 0.00564999974519014 16 -0.0209208703041077 -0.395093990474415 -0.11794802633541 0.412854309702221 -29.4600394436805 -10.317245616566 0.795450954419884 -14.5169376564844 15.4196828237639 -2.76620425158857 39.7414135309007 0.210214057751131 -1.57756809171872 2.9764183093397 -38.9459625764809 -4.19969203991839 39.2846596038578 380.89747530937 -612.920507302377
0.0125500000193715 0.0572499968335032 0.00564999974519014 16 -0.128143538236618 -0.410836245582517 0.0182663276776051 0.430744524983154 -33.277064586335 -21.6626052192411 0.598026075846714 7.24684760526444 17.2323367023969 -3.57139815699308 42.5192619018401 13.5233323583926 -4.24257382178582 17.0947305153857 -41.9212358259934 28.9094528245056 53.7156987033076 223.631263575307 -325.515463246101
0.0153500000610948 0.0572499968335032 0.00564999974519014 16 -0.220600003798803 -0.356003874084757 0.130833132481591 0.438771499295855 -29.0762108956298 -31.6219961111778 0.576657296568304 35.2968002459468 15.6177692055562 -3.74485672268994 36.0871678125414 26.6895972216542 -5.48477839208545 30.4344539443441 -35.5105105159731 66.9187963571245 81.6417641276923 -245.752859677533 815.005088096992
0.018150000102818 0.0572499968335032 0.00564999974519014 16 -0.300298852125804 -0.214372128610169 0.23278419712157 0.436260578716968 -17.2752677475786 -37.132884960711 0.503334209273245 55.7714947005076 10.7005112965383 -3.20924431066767 19.602668816294 36.1613403442912 -4.26726887534057 39.3705846549588 -19.0993346070207 92.9043796612186 102.693969047554 -2090.43177321391 2020.34243464137
0.0209500001445413 0.0572499968335032 0.00564999974519014 16 -0.320569666624069 -0.0451956439817635 0.251848235000998 0.410164711875011 -1.6661632409956 -36.2261646809208 0.0916849808143817 60.3218686173953 3.78355707583 -2.11949514323819 -4.42541444611065 39.0199721218012 -1.48027124170537 41.1394672650394 4.51709942692503 96.5480332983161 105.044669964053 -2258.42496786441 2258.89999091364
0.0237500001862645 0.0572499968335032 0.00564999974519014 16 -0.306372662782669 0.120793809751049 0.211253253145454 0.391258597272 14.3475271574812 -29.0374408273567 -0.79816293467268 50.501416444626 -3.15931152861946 -0.699267015271351 -28.8200910908166 34.2608291653941 1.13109194394251 34.9600961806655 28.0219281561439 79.5388572719827 91.2900136854098 -1494.37832961272 1434.71282358624
0.0265500002279878 0.0572499968335032 0.00564999974519014 16 -0.231412753661474 0.234842221114474 0.0823321812913976 0.33982542496312 28.3800613163615 -17.6154546948715 -1.63976543223924 33.3027948659632 -8.41465746354367 0.509523708915852 -45.3499026894946 23.1948793867022 1.81644452146123 22.6853556777864 43.7101372572553 50.9182495608346 70.8369225730142 27.1706284688077 297.919884091021
0.029350000269711 0.0572499968335032 0.00564999974519014 16 -0.13496235092481 0.305582715327231 -0.0606905614443046 0.339527578146959 32.35693948527 -5.14382431453634 -1.91472806287713 16.9463521805123 -11.3738474404706 1.02091669921002 -44.1083926829276 9.47536812478351 0.184707189740781 8.45445142557349 42.1936646200505 22.0901764950487 48.3710551937735 67.0701823151065 -371.107245821678
0.0321500003114343 0.0572499968335032 0.00564999974519014 16 -0.0373311932881673 0.329534659959221 -0.185271704949167 0.379884607165819 23.7644761570952 4.8305111853087 -1.65790683292487 5.54778596542197 -12.3759927685092 0.917781063718119 -28.3728875476203 -2.16925396695414 -2.37619144964932 -3.08703503067226 26.7149807146954 0.717274780113264 26.9023133387694 175.621768792147 -393.017548001464
0.0349500003531575 0.0572499968335032 0.00564999974519014 16 0.00724156300226841 0.337140043044152 -0.235178278169866 0.411126101557018 14.993219197134 9.50390150179326 -1.37649057007996 2.64800258410614 -12.5445252256676 0.670495921410274 -16.026171140441 -7.82170950530094 -3.95799817794616 -8.49220542671121 14.6496805703611 -6.85589891768712 18.2683891953456 175.040172133915 -239.756547573206
-0.0350500006899238 0.05444999679178 0.00564999974519014 16 -0.107190722227096 -0.178154556575852 0.0983126317073281 0.229987544257348 8.10112790920168 -58.6654552322396 0.265403915794964 27.1586399895151 -1.00044183395384 5.8338937961866 3.9752135067507 37.0527546726038 -2.09551482380636 31.2188608764172 -3.70980959095573 85.8240952217547 91.4010682774281 -1381.48617001007 1353.07280543402
-0.0322500006482005 0.05444999679178 0.00564999974519014 16 -0.0830612619717916 -0.103513944220989 0.110036385039954 0.172401612292907 11.2545660365106 -57.9426067747331 0.515682792500835 45.0231930736242 -1.61732441494444 4.80150565217593 0.722139929646062 40.8239547261299 -0.833212218934706 36.022449073954 -0.206457137145227 102.965799848357 109.085358322036 -2408.79881035528 2386.14017560434
-0.0294500006064773 0.05444999679178 0.00564999974519014 16 -0.0391546948750814 0.0739010228754099 0.0988551380593951 0.129486638822446 12.9183869776134 -54.1476471115904 1.25652248207518 65.6766905248072 -2.46126727384538 2.92214244694947 1.18133363410986 45.8991667059817 0.751989327399748 42.9770242590322 0.0751888479653233 119.824337636398 127.298476650452 -3397.69539929555 3396.69802572685
-0.026650000564754 0.05444999679178 0.00564999974519014 16 -0.00558775742848705 0.266950113526157 0.116151649042343 0.291178281676301 7.32102607894874 -45.0067976908484 2.28070968113138 60.0590473900695 -2.28401952895891 1.06309953266027 -1.09913042141062 47.1486402269396 1.80580030902354 46.0855406942794 3.37984010254201 105.065845080918 114.77862249901 -2646.93411161663 2647.82295684023
-0.0238500005230308 0.05444999679178 0.00564999974519014 16 0.00420484026273082 0.414564648593465 0.0930994947017947 0.424910631143524 1.47380200457725 -30.9317336021673 3.20653483992728 33.4599727251404 -1.4644740650634 0.113478588499604 -6.58330588519132 41.6400445658123 1.21331449455261 41.5265659773127 9.7898407251186 64.3917063273076 77.243695581151 -1047.4837570439 1049.21228178167
-0.0210500004813075 0.05444999679178 0.00564999974519014 16 0.00284711440404251 0.457960403935091 0.0769428884346659 0.46438781822254 0.655993046664165 -15.0295132157681 3.5336248759669 1.46842804270243 -0.953515817689163 0.17101866975857 -10.503616439105 30.9153780032776 -0.278710779696723 30.7443593335191 14.0372413150719 16.4979412584705 37.6090659327514 -65.4817542874511 53.3559152470345
-0.0182500004395843 0.05444999679178 0.00564999974519014 16 0.00708032250404367 0.422533707539939 0.0327482374850661 0.423860014665911 4.70729786688379 -0.653713772177697 3.13057956898344 -19.461531478927 -1.07241497137418 0.675841029681065 -15.6602099870328 18.1709953371481 -1.60960939886369 17.4951543074671 18.7907895560163 -18.8078177067493 31.8262188025987 30.1165020142559 13.123639697418
-0.015450000397861 0.05444999679178 0.00564999974519014 16 0.0288921105861664 0.345639315987161 -0.0138846835983956 0.347122565168016 8.87297754746636 10.5376889038951 2.20516890194549 -27.7120352812122 -1.02248688173831 1.03004876200377 -17.3262717007701 5.49996770739801 -2.27202473086265 4.46991894539424 19.5314406027156 -38.2497241851073 43.1798419130105 -196.540718249822 297.653915214125
-0.0126500003561378 0.05444999679178 0.00564999974519014 16 0.0566828489303588 0.262285162760254 -0.0657285212704301 0.276272855118689 8.71412228994196 18.5400680492737 1.21325499211156 -28.6306548297087 -0.1382763774815 0.982584737116904 -17.7142938569659 -6.52511932033603 -2.44866554789907 -7.50770405745294 18.9275488490774 -47.1707228789824 51.377960475035 -472.198028147868 536.513391250673
-0.0098500003144145 0.05444999679178 0.00564999974519014 16 0.0786416244506836 0.180731775240662 -0.116510878225478 0.228961272757547 3.44267673390995 23.5982193332608 0.474389706365993 -30.2293855278025 0.936389878518234 0.631975184830019 -12.9280772377601 -17.1665456968442 -2.81765236343765 -17.7985208816742 13.4024669441261 -53.8276048610633 58.2565404984071 -738.416602769144 721.226447907621
-0.00705000027269125 0.05444999679178 0.00564999974519014 16 0.0774483410517375 0.0892287875418454 -0.143693911538382 0.186032153863396 -2.55038631561391 25.7958962980855 0.00570600045590948 -33.1040243262598 1.21614276310678 0.152518981845038 -7.85687073654038 -25.3293900362585 -3.05317737257238 -25.4819090181035 7.86257673699629 -58.8999206243453 64.6556142164487 -854.494266142429 858.828071019743
-0.004250000230968 0.05444999679178 0.00564999974519014 16 0.0659773763020832 -0.00748879900861842 -0.167500350115782 0.18018175152664 -5.06524773719987 25.4636830211603 -0.16772088655253 -35.313904031157 0.563182880618441 -0.257917412500275 -5.31780785194359 -30.8003762908594 -2.58914248607693 -30.5424588783591 5.15008696539106 -60.7775870523173 68.2149564097886 -885.85615635074 899.190024268207
-0.00145000018924474 0.05444999679178 0.00564999974519014 16 0.0502193800608317 -0.111227820648152 -0.179481041405816 0.217041605329365 -2.47476867127265 23.298412876517 -0.0740090196656389 -33.4488339196935 0.184918729666567 -0.454021088861815 -5.2852115844055 -34.4144906642623 -0.993758823941766 -33.9604695754005 5.21120256473986 -56.7472467962105 66.3379238814607 -761.080967616036 765.106612553029
0.0013499998524785 0.05444999679178 0.00564999974519014 16 0.053409431775411 -0.197238287015061 -0.199561841004955 0.285622894132272 1.07344155566399 19.5394359219205 0.39881986991621 -30.4221016296937 1.45116935829924 -0.50071490713505 -3.54087444015227 -36.1502545243594 1.03551669539612 -35.6495396172244 3.93969431006848 -49.9615375516142 61.5025698706826 -579.990447303095 581.913927394385
0.00414999989420176 0.05444999679178 0.00564999974519014 16 0.0583365738391877 -0.285119729669144 -0.200154773236039 0.35321147963093 -0.606852814027314 13.1395891065649 0.999877320870464 -29.1610076024944 4.54041527879073 -0.722509221623573 4.81955857071972 -33.5085025753709 2.22662339218304 -32.7859933537474 -3.81968124984925 -42.3005967090594 53.6549327367475 -354.802252159299 360.137686815089
0.006949999935925 0.05444999679178 0.00564999974519014 16 0.0515817507108052 -0.366348089457024 -0.172157777536971 0.408056246149563 -6.47853325918846 2.4224010068246 1.4989102213318 -27.6619012937065 8.27604717385102 -1.36995625853582 14.1506390354145 -23.4824905246765 1.44654560891027 -22.1125342661407 -12.6517288140827 -30.0843023005311 39.4220199706469 -7.60676317413918 -37.3887658144871
0.00974999997764826 0.05444999679178 0.00564999974519014 16 0.0217032257715861 -0.448016161608199 -0.120533365640246 0.464454307013728 -14.9282068273195 -13.1344041352548 1.72962201399316 -17.0140122026756 10.9183385518207 -2.29753440606021 22.6217303704046 -5.46898139792312 -1.31646399017471 -3.17144699186292 -20.8921083564114 -3.87960806742089 21.4846369844833 391.893983158065 -432.873496925437
0.0125500000193715 0.05444999679178 0.00564999974519014 16 -0.0367063319683074 -0.469154237972883 -0.0419004271658681 0.472449679448686 -18.1609617412231 -31.4369799940525 1.74642232793083 7.45655179001174 11.3930550346317 -3.07643683310046 23.6460641996526 17.210781164119 -4.60906299436541 20.2872179972195 -21.8996418717218 38.8935317840642 49.0293008599388 15.2245896631428 70.3482078120549
0.0153500000610948 0.05444999679178 0.00564999974519014 16 -0.0871764187018076 -0.409694249515111 0.0176145647860055 0.41923666222794 -17.5768165521349 -48.0930862907227 1.68981115875782 38.6906604291091 9.40405816356282 -3.42192593872904 20.1779671418124 38.8269146737739 -6.57870898944457 42.248840612503 -18.4881559830545 86.7837467198318 98.2761168315392 -1634.42217268679 1847.99193696082
0.018150000102818 0.05444999679178 0.00564999974519014 16 -0.143053752581279 -0.250440906546234 0.0775729284043579 0.298668014726239 -13.1106196294301 -58.2462399028328 1.39439050691312 61.5563543652327 5.14259622469325 -3.2929614471613 11.2235389072262 53.6435021309338 -6.11561630029562 56.9364635780951 -9.82914840031304 119.802594268066 133.007648789135 -3712.03277221757 3727.72892300826
0.0209500001445413 0.05444999679178 0.00564999974519014 16 -0.16739403406779 -0.0581572694409018 0.0865957850396323 0.197235546027941 -6.14568042679962 -58.8380911149676 0.844246358226326 67.1825876706344 -0.586028272562721 -2.68639910401889 -2.95246785428608 57.691053670667 -4.10400352961796 60.3774527746859 3.7967142125124 126.020678785602 139.789353399874 -4107.5183381133 4141.59751857542
0.0237500001862645 0.05444999679178 0.00564999974519014 16 -0.182678416570028 0.136252573865349 0.065278294881767 0.237059957707193 2.40986198735112 -49.6096326125976 0.0298427413427358 56.3468849345113 -6.34934721123766 -1.58810277065753 -17.8973188558381 50.054477800271 -2.21163422745427 51.6425805709285 17.9271615971808 105.956517547109 119.227190110591 -2833.86044105669 2868.78567027203