TITLE="DynamicStudio Exported Data"
VARIABLES= "X (m)[m]" "Y (m)[m]" "Z (m)[m]" "Status[-]" "U[m/s]" "V[m/s]" "W[m/s]" "Length[m/s]" "dU/dX[1/s]" "dU/dY[1/s]" "dU/dZ[1/s]" "dV/dX[1/s]" "dV/dY[1/s]" "dV/dZ[1/s]" "dW/dX[1/s]" "dW/dY[1/s]" "dW/dZ[1/s]" "Vorticity X[1/s]" "Vorticity Y[1/s]" "Vorticity Z[1/s]" "Vorticity Magnitude[1/s]" "Lambda-2[1/s²]" "Q-Criterion[1/s²]"
ZONE T="DynamicStudio Data" I=26 J=26 F=POINT
-0.0350500006899238 0.0600499968752265 0.00564999974519014 16 0.0983816279967626 0.331971069157201 -0.0521218682150356 0.350143434367823 7.89531183209573 4.70866045387833 6.06898902372085 -10.6039235162832 -7.37820298184855 2.11996875015409 -2.41820691403264 -4.63187685817668 -1.13137408611297 -6.75184560833077 8.48719593775349 -15.3125839701615 18.764198406748 -21.0100430971123 15.5875238742575
-0.0322500006482005 0.0600499968752265 0.00564999974519014 16 0.119790822466215 0.30320168089432 -0.0575617479470869 0.33105053280579 12.7093350128786 5.66453740193119 5.3727454754845 -16.462561028566 -6.19981741887679 1.89788214517195 -5.50298526193905 -4.74455795186292 -1.28241253653034 -6.64244009703487 10.8757307374235 -22.1270984304971 25.5345259299746 -48.3028481525211 44.6801001047032
-0.0294500006064773 0.0600499968752265 0.00564999974519014 16 0.170622038046519 0.242736134697334 -0.0837360779910038 0.308292785696106 14.4703875352069 7.50148019677274 4.08789703355481 -25.2081704186681 -4.10578962006772 1.35552704645942 -5.21616089830646 -5.15211305172112 -1.28942959873112 -6.50764009818054 9.30405793186126 -32.7096506154408 34.6242128723685 -75.93115805196 144.62876217213
-0.026650000564754 0.0600499968752265 0.00564999974519014 16 0.20136478026708 0.164830508043136 -0.0862221490964293 0.274137064456039 7.98963190780426 8.91487605239728 2.48055438998322 -27.787299703787 -2.2097833970986 0.558628765500525 -0.760989126817579 -4.67308388731352 -0.385030988509084 -5.23171265281404 3.2415435168008 -36.7021757561842 37.2146224875487 -183.541025611052 232.337749968079
-0.0238500005230308 0.0600499968752265 0.00564999974519014 16 0.213624356587728 0.088398858064708 -0.0822830402719167 0.245398089949891 1.02825227124826 9.51249689353661 1.16031435437153 -26.4518882815923 -0.921128872608989 -0.164156038777319 2.54718047665025 -3.13118088926655 0.97480334442041 -2.96702485048923 -1.38686612227871 -35.9643851751289 36.1132058273642 -249.378695891726 247.311244177001
-0.0210500004813075 0.0600499968752265 0.00564999974519014 16 0.205798871119817 0.0176635921084138 -0.0661237711381788 0.216881375295109 -4.186157449277 9.66399189999378 0.458329081328464 -24.6516442995517 -0.0316461273792285 -0.600947608174042 3.56659060710896 -1.97410550679098 1.90076246078586 -1.37315789861694 -3.1082615257805 -34.3156361995455 34.4834705345436 -198.420941237516 227.527717619768
-0.0182500004395843 0.0600499968752265 0.00564999974519014 16 0.189262867371241 -0.0486443349171896 -0.0601768947862244 0.204469956109038 -4.58841282324737 9.86650331351734 0.396901552401665 -22.8680007399696 0.828460777330529 -0.713589743952176 0.802788605454595 -2.69150165481016 2.21849033652013 -1.97791191085799 -0.40588705305293 -32.7345040534869 32.7967168395665 -189.82855189509 211.245211720062
-0.015450000397861 0.0600499968752265 0.00564999974519014 16 0.181609578927358 -0.108272582965049 -0.0654804980320235 0.221342917218098 -6.05304322040704 9.9438762200105 0.689368211695557 -22.7696026525293 1.67080842529259 -0.574946969140468 -1.54631073515505 -5.39604747911628 2.41815636804206 -4.82110050997582 2.23567894685061 -32.7134788725398 33.1423138966607 -181.029652784329 203.67124209096
-0.0126500003561378 0.0600499968752265 0.00564999974519014 16 0.155542993545532 -0.174367299387207 -0.0749018056679051 0.24537289668789 -9.43206704934904 8.94949627447262 0.896902853887964 -22.9638486016883 2.36250783462596 -0.392940334001929 -3.36212566488656 -8.24890809415307 2.42810072247878 -7.85596776015114 4.25902851877452 -31.9133448761609 33.1408680416952 -123.267504081009 165.840114772981
-0.0098500003144145 0.0600499968752265 0.00564999974519014 16 0.126004464626312 -0.235379884270951 -0.0895833512911728 0.281613195453849 -14.8338027177358 6.57253621020256 1.038367108358 -22.8198341380388 3.26820058334045 -0.0814519083427515 -3.27277564429193 -9.44759777257014 1.48107345792319 -9.36614586422738 4.31114275264993 -29.3923703482413 31.1483879979669 -27.1108335344233 87.0036548558999
-0.00705000027269125 0.0600499968752265 0.00564999974519014 16 0.0672068770726522 -0.299216685805392 -0.0966966318185829 0.321555015503226 -19.9381707073902 3.15405641313925 1.24176495173829 -20.2720878568145 4.9396902547442 0.326549192737883 -0.708437414002155 -8.23804970851049 -0.626812836965365 -8.56459890124838 1.95020236574044 -23.4261442699538 25.0187905175948 13.5873171355263 -21.5779975122643
-0.004250000230968 0.0600499968752265 0.00564999974519014 16 0.00773782253265387 -0.344219880435315 -0.0937905592999111 0.356852727323527 -22.7998578351978 -0.583304255077717 1.63211648596105 -11.9529010926961 7.58654384815585 0.470944736484563 5.76458949516034 -5.09245330351333 -2.8443697406661 -5.56339803999789 -4.13247300919929 -11.3695968376184 13.3152718024528 47.1636042068207 -143.682226777112
-0.00145000018924474 0.0600499968752265 0.00564999974519014 16 -0.0664487274487813 -0.36052816412334 -0.0606486793153454 0.371583439900656 -25.5933881407416 -4.04073825323239 2.17588908448082 5.14639267101054 10.4832723346669 -0.147163641787961 18.9562033011102 -0.916915199550164 -3.56841211088044 -0.769751557762203 -16.7803142166294 9.18713092424292 19.1461441885481 97.5028824842614 -234.96964430118
0.0013499998524785 0.0600499968752265 0.00564999974519014 16 -0.140642659664154 -0.312517364474285 0.0215572888357565 0.343383426387047 -25.3968940761975 -6.83700371811995 2.71751575025219 31.5549745780739 12.021468019147 -1.70671714153316 34.9602415510689 3.81840836668829 -2.25354419175476 5.52512550822145 -32.2427258008167 38.3919782961939 50.438719020646 19.019048230515 -147.912421738939
0.00414999989420176 0.0600499968752265 0.00564999974519014 16 -0.212009632587433 -0.186573168410493 0.148386255923736 0.319023686311303 -19.0141532870768 -8.28209153438091 2.99571012487257 58.5943635398656 10.7224495602467 -3.42581304174543 46.4756241820107 8.27502130426181 0.632787716003247 11.7008343460072 -43.4799140571381 66.8764550742465 80.6217879614843 12.2181573543696 165.279872404442
0.006949999935925 0.0600499968752265 0.00564999974519014 16 -0.247832746903102 0.00761771194947263 0.295678775412962 0.385882155848895 -4.33352256743399 -7.76332120358724 2.85035320227764 70.009683019245 6.3771236822848 -4.25062020467874 40.5983520936552 11.6527697943755 3.76079270975784 15.9033899990542 -37.7479988913776 77.7730042228323 87.9003379948573 -552.613320232727 457.369663252708
0.00974999997764826 0.0600499968752265 0.00564999974519014 16 -0.233804003397624 0.194781692170848 0.386015132922524 0.491540336549188 14.3182018599387 -5.17856187142799 2.26868281219521 56.5897361623809 0.400314571740201 -3.78396480388989 13.4168943580116 13.1284183202463 5.74163840528893 16.9123831241362 -11.1482115458164 61.7682980338088 65.0048764755482 -271.504217978781 402.532429294825
0.0125500000193715 0.0600499968752265 0.00564999974519014 16 -0.16254769206047 0.314968245460036 0.373624124735749 0.514996829530934 29.5390508648831 -1.30193848883769 1.34902129689184 26.3228503614526 -4.84911419540422 -2.51763022018699 -23.6820643149541 12.3004198845015 5.99406738722476 14.8180501046885 25.031085611846 27.6247888502903 40.1155682352344 4.53539629859048 101.941163274432
0.0153500000610948 0.0600499968752265 0.00564999974519014 16 -0.0628113361199696 0.336822671041979 0.249096189494012 0.423607940545814 36.6626334466917 2.6663855917439 0.380663497111693 -3.44523058524279 -7.82684491238365 -1.44463058974433 -52.5193353612222 9.13312290382284 4.61436088614692 10.5777534935672 52.8999988583339 -6.1116161769867 54.2922701724399 41.7004603549386 -111.521515548842
0.018150000102818 0.0600499968752265 0.00564999974519014 16 0.0478084085385004 0.293634142493829 0.0675813667807961 0.305080144717795 34.3936811048198 6.11139143624531 -0.202163092972672 -18.9419479628366 -8.46613160339792 -1.06495741892377 -56.5509702832462 3.8264322250917 2.53042137649705 4.89138964401547 56.3488071902735 -25.0533393990819 61.8610020890528 24.5633504309408 -117.169678171184
0.0209500001445413 0.0600499968752265 0.00564999974519014 16 0.135047483841578 0.231427652029088 -0.082974438877621 0.280501940318947 23.8327511242781 8.92818699340125 -0.14208243977664 -22.8652981892567 -7.44825475019219 -1.09638101154546 -39.3057391365622 -2.45510647027132 0.754846398307442 -1.35872545872586 39.1636566967856 -31.7934851826579 50.4624993514566 -24.0201731988455 30.7246467689953
0.0237500001862645 0.0600499968752265 0.00564999974519014 16 0.186650230089823 0.168196034705422 -0.167423064916705 0.301924985963922 10.544100680298 11.4315646933685 0.388932198640195 -21.949434613453 -5.56471527162558 -0.949331183883808 -15.8986498556023 -8.71529860333482 -0.366074523660496 -7.76596741945101 16.2875820542425 -33.3809993068214 37.9458389531141 -144.414841260087 188.32842964648
0.0265500002279878 0.0600499968752265 0.00564999974519014 16 0.200143472552299 0.113115027549356 -0.185211921289435 0.295221738445035 -0.560443528593858 13.7002846875082 0.893029107872244 -20.9261518487403 -3.3151051052672 -0.164015557533744 -0.984722159371191 -14.0475030179348 -0.939551080499277 -13.8834874604011 1.87775126724343 -34.6264365362485 37.3532767114692 -274.122615915736 290.768819363137
0.029350000269711 0.0600499968752265 0.00564999974519014 16 0.188007746140162 0.0575073675776366 -0.182354779092517 0.268155319530107 -5.28368701548356 15.487831351839 0.938437191001583 -18.9891588372054 -1.20143759374479 1.05515560377022 1.35744648813503 -17.9185103572483 -1.45135630913792 -18.9736659610185 -0.419009297133452 -34.4769901890444 39.355284540794 -311.511855448399 327.494074660457
0.0321500003114343 0.0600499968752265 0.00564999974519014 16 0.173163703282674 0.0126753025959867 -0.185203025007698 0.253863136162917 -4.61086195837783 16.5642728541698 0.620592671940887 -12.4363674763846 0.363911762724068 2.16578348077191 -0.0118043260225251 -20.2238551541995 -2.04492867073738 -22.3896386349714 0.632396997963412 -29.0006403305544 36.6433211342779 -238.905214966392 256.813964597609
0.0349500003531575 0.0600499968752265 0.00564999974519014 16 0.162673747936884 -0.00793504455592483 -0.186337899041052 0.247482374764286 -3.53290006063302 16.9046538220685 0.280498381880375 -7.94327402669877 1.15767329355408 2.7479588459627 -0.302425014549115 -20.9822521058681 -2.30906472323443 -23.7302109518308 0.58292339642949 -24.8479278487673 34.3639670277172 -179.019773990721 193.416100933485
-0.0350500006899238 0.0572499968335032 0.00564999974519014 16 0.084638864994049 0.354040871807859 -0.0358255671457543 0.365776089485446 6.85136989193389 7.0135506155345 5.20425200512771 -11.3827435407547 -8.12616210253626 2.16486547081009 -1.54647635839304 -4.02254013773801 0.0282572341553738 -6.1874056085481 6.75072836352075 -18.3962941562892 20.5494515811848 -35.2096479862997 40.8785944366324
-0.0322500006482005 0.0572499968335032 0.00564999974519014 16 0.105074512561162 0.321874524423377 -0.0446306852949783 0.341519780880465 10.6426355306624 9.10960509512038 4.69637420126095 -17.8313127048545 -6.89059893908118 2.00742452570127 -3.9554914813318 -5.82305040566305 -0.522866310079711 -7.83047493136432 8.65186568259275 -26.9409177999748 29.3595669134501 -116.369678248767 117.40607278925
-0.0294500006064773 0.0572499968335032 0.00564999974519014 16 0.147921337683996 0.253873784677708 -0.0671576392200465 0.30140134238987 12.0574785137174 12.9768993338789 3.69311946129834 -26.8825576284759 -4.54546931925457 1.5637007797698 -3.9551350016601 -8.49571838296393 -1.12933993963113 -10.0594191627337 7.64825446295844 -39.8594569623548 41.8146388189059 -262.77677999031 313.453281026913
-0.026650000564754 0.0572499968335032 0.00564999974519014 16 0.176392347017924 0.171111150234174 -0.0729096406434352 0.256337865949821 6.61627762804298 16.2920306832549 2.40981844876057 -29.06684267366 -2.22354121389681 0.82255008131673 -1.2095413999701 -9.46786839459364 -0.836982724015745 -10.2904184759104 3.61935984873067 -45.3588733569149 46.6521153896863 -451.027259499648 465.872253324336
-0.0238500005230308 0.0572499968335032 0.00564999974519014 16 0.186777044932048 0.0908048856306899 -0.0747508143440549 0.220723528453697 0.535826377036771 17.9586039101812 1.34849573826621 -27.4855006462283 -0.339937387550968 0.0155594838218892 1.47913152723702 -8.46523483804355 0.156716446478536 -8.48079432186544 -0.130635788970808 -45.4441045564095 46.2288608660545 -492.498776692591 491.586883109886
-0.0210500004813075 0.0572499968335032 0.00564999974519014 16 0.179377588828405 0.0178748727547645 -0.0631811369940018 0.191017503181635 -4.07404453587323 18.2884185555032 0.792096605518033 -25.5947224124232 1.34025884154666 -0.632989861561028 3.38257811075653 -7.59886518643641 1.07785988045135 -6.96587532487538 -2.5904815052385 -43.8831409679265 44.5080225878616 -458.893206897645 452.190750896777
-0.0182500004395843 0.0572499968335032 0.00564999974519014 16 0.162731556892395 -0.0509700448632551 -0.0558062668858717 0.179426432015247 -4.65002489989911 18.1704139142433 0.726143517133035 -23.8425296746824 2.97116358756105 -0.9803679270648 2.44948789964517 -8.82241993493483 1.62228929598438 -7.84205200787003 -1.72334438251214 -42.0129435889257 42.7732992012673 -415.566311539509 406.261152249398
-0.015450000397861 0.0572499968335032 0.00564999974519014 16 0.152423868576686 -0.113983101140087 -0.0506603975097338 0.196955982222522 -5.5851693896392 17.7383611912962 0.868693300483801 -23.2782915164838 4.17359883690769 -0.97614912792122 1.01662406684229 -12.130538756354 2.16178379657622 -11.1543896284328 -0.147930766358486 -41.01665270778 42.5065652675579 -384.475237201602 373.83262667432
-0.0126500003561378 0.0572499968335032 0.00564999974519014 16 0.130002771615982 -0.180952741199289 -0.0504186431978208 0.228443986038774 -7.67999879570235 15.8498790887276 0.894938582257344 -23.1537033856473 4.64157601504345 -0.757829166893643 -1.98714570788606 -15.1174999770063 2.5155226277052 -14.3596708101126 2.88208429014341 -39.0035824743749 41.6627651682609 -323.858463324503 314.014770605261
-0.0098500003144145 0.0572499968335032 0.00564999974519014 16 0.105977161725362 -0.244623391428031 -0.0607428488942484 0.273425412375852 -11.7018535053879 11.7581816441565 0.873511537665592 -23.3828478256501 5.09254690370893 -0.34092266775085 -4.05535056872975 -15.3103417834299 1.88614094853947 -14.9694191156791 4.92886210639535 -35.1410294698065 38.5132333428723 -185.89794963452 201.204203378345
-0.00705000027269125 0.0572499968335032 0.00564999974519014 16 0.0582497215270996 -0.312076286532683 -0.0706138821699036 0.32522447483103 -15.9165421169092 5.74409710701541 0.992013712133472 -21.8043137936567 6.63062330436114 0.133050609010519 -4.01753241709616 -11.621854543918 -0.0579894010918882 -11.7549051529285 5.00954612922963 -27.5484109006721 30.3675532555307 -6.83571799657336 25.7797276395033
-0.004250000230968 0.0572499968335032 0.00564999974519014 16 0.00904462258021033 -0.365495768830491 -0.0790362488338724 0.374053058883816 -18.8146841702657 -1.016918258992 1.38214569075826 -14.2719729220484 9.59963653941838 0.257643982013186 1.19674427507735 -4.79344645574003 -2.2824676319795 -5.05109043775322 0.185401415680911 -13.2550546630564 14.186062258989 97.772412586913 -174.513583860525
-0.00145000018924474 0.0572499968335032 0.00564999974519014 16 -0.0546001990636189 -0.390663552470505 -0.0558952526816089 0.398401144876622 -21.9881774685555 -7.45482459672529 1.94747248157367 3.30646795116161 12.7930569264492 -0.476290096599549 14.0303787259243 3.30837730487444 -2.99786956881781 3.78466740147399 -12.0829062443507 10.7612925478869 16.6170318634452 139.289127742712 -254.829124527372
0.0013499998524785 0.0572499968335032 0.00564999974519014 16 -0.120949574708939 -0.348962735306898 0.0106535708987212 0.369482460785407 -22.6327547890176 -12.8920860677954 2.43843931264308 31.7711644463745 13.9040598831709 -2.22349988026368 30.4507278392367 11.1652744031463 -1.52778017578405 13.38877428341 -28.0122885265937 44.6632505141699 54.3944255581464 -11.6928123078667 58.8186700834553
0.00414999989420176 0.0572499968335032 0.00564999974519014 16 -0.187293762365977 -0.219395629826856 0.126172168763975 0.314853635803893 -18.0864169331665 -16.1022657701319 2.54176104467754 61.5156681153559 11.1995715923468 -4.19404007782551 43.2835074644631 17.3813671866683 1.64918654185371 21.5754072644938 -40.7417464197856 77.6179338854878 90.2769724825486 -553.729957032913 739.505640514856
0.006949999935925 0.0572499968335032 0.00564999974519014 16 -0.225743856430054 -0.0131557736437147 0.262722788371514 0.346636158855046 -5.87077265106054 -15.6656754840135 2.20504433533553 74.7638770197418 4.97251497568045 -5.24098931699338 38.8448328677338 21.2010869667661 4.94388979648698 26.4420762837595 -36.6397885323982 90.4295525037553 101.089868275334 -1273.01017246029 1163.05333506525
0.00974999997764826 0.0572499968335032 0.00564999974519014 16 -0.218399522304535 0.193127708524989 0.348478703820535 0.454350162495186 10.3548745840889 -11.0266845685903 1.58757538430812 61.3547146852793 -2.5543878441999 -4.85246452453875 14.0870608004885 21.7925569082537 6.79510787664999 26.6450214327925 -12.4994854161804 72.3813992538696 78.1361712702341 -738.715617912651 786.477207084729
0.0125500000193715 0.0572499968335032 0.00564999974519014 16 -0.160391558408737 0.3290069143315 0.338909426702497 0.498829230493296 24.7817062524463 -3.59822047450053 0.892805631849806 29.4519824828923 -8.69868889948998 -3.50487944093799 -21.0501449168772 18.7664705462815 6.58435005100867 22.2713499872195 21.942950548727 33.0502029573929 45.4952967301232 -29.5705715755377 80.8704941539822
0.0153500000610948 0.0572499968335032 0.00564999974519014 16 -0.0698056169350942 0.3592964176919 0.2206116004944 0.42735958886472 32.4556143316476 4.04336855945317 0.28191233254604 -2.17777934910654 -12.1026953514062 -2.2376521869809 -47.8925060665834 12.5634875137919 4.64184723094539 14.8011397007728 48.1744183991294 -6.22114790855971 50.7794348711794 107.525927168324 -247.90550413092
0.018150000102818 0.0572499968335032 0.00564999974519014 16 0.0296597059567769 0.317786067362273 0.0570636861172413 0.324228232947578 31.1655345503705 10.3301989474461 -0.0519761807922108 -19.2838635892511 -12.8151353974565 -1.62467073530195 -50.7651616945518 3.91974652336909 2.26176939190251 5.54441725867104 50.7131855137596 -29.6140625366971 58.9877991420146 47.8385060300835 -154.950308267341
0.0209500001445413 0.0572499968335032 0.00564999974519014 16 0.110931721925736 0.25212324298375 -0.0770371712547239 0.286018709767353 21.3102526241243 15.1419121496638 0.0774570330079119 -24.3353467209458 -11.3424635237549 -1.45243486018702 -33.4640346770752 -5.6139202930246 0.555367398830688 -4.16148543283758 33.5414917100831 -39.4772588706096 51.9692562490788 -90.2373321499101 126.746875516465
0.0237500001862645 0.0572499968335032 0.00564999974519014 16 0.154398063421249 0.183911805609241 -0.141416604296925 0.278677179190469 8.15196679731826 19.222085299475 0.533066872724174 -24.0694207285502 -8.38027536982413 -1.17280720135024 -10.4825254006339 -14.7850184964587 -0.190410750201364 -13.6122112951085 11.0155922733581 -43.2915060280251 46.6989300054089 -375.454983916812 382.640115061345
0.0265500002279878 0.0572499968335032 0.00564999974519014 16 0.161796226898829 0.122258405062991 -0.144061116023246 0.248754380458128 -2.40841591246302 22.7059515682773 0.906680661624171 -23.1291380095185 -4.80717314940156 -0.354692487861684 3.00092032273584 -22.4093839620008 -0.324321061346696 -22.0546914741391 -2.09423966111167 -45.8350895777958 50.9082576050507 -490.869509175837 528.417610697269
0.029350000269711 0.0572499968335032 0.00564999974519014 16 0.143997877041499 0.0602648985929166 -0.130117857963584 0.20321885630006 -6.45729949507214 25.1316875436248 0.809150944336424 -20.5780154664893 -1.71988619651366 0.831170316576443 4.0784384724196 -27.8256826486212 -0.421212484399486 -28.6568529651977 -3.26928752808317 -45.7097030101141 54.0488705902637 -508.969559122054 551.538217055199
0.0321500003114343 0.0572499968335032 0.00564999974519014 16 0.125768095652262 0.0112395839354334 -0.124984676398065 0.17766572957486 -4.96844800383984 26.3040722345651 0.365106711666342 -13.2762693066047 0.187089144167355 1.89458269845577 1.22889492641682 -31.0189256196947 -0.668726619396054 -32.9135083181505 -0.863788214750481 -39.5803415411698 51.4844500446937 -383.626148328051 409.807068126132
0.0349500003531575 0.0572499968335032 0.00564999974519014 16 0.114865259329478 -0.0124618236332511 -0.125287072143789 0.170429385070349 -3.55966995295571 26.5571212548351 -0.0109765617876851 -8.46278728608963 0.935574883907749 2.44181159930947 0.0361188948833313 -32.1196738580554 -0.805701479567662 -34.5614854573648 -0.0470954566710164 -35.0199085409248 49.2025658804133 -292.531838966622 301.961756241149
-0.0350500006899238 0.05444999679178 0.00564999974519014 16 0.0596752226352693 0.379478172835273 -0.0298527772615974 0.385299888613009 3.77628945455043 8.35462368835344 3.45481647914046 -12.6223441834189 -6.57240161639684 2.02885905897267 0.858439127773702 -9.70475622380505 1.54011373936501 -11.7336152827777 2.59637735136676 -20.9769678717724 24.1754438231916 -80.7764687588362 93.0531469798239
-0.0322500006482005 0.05444999679178 0.00564999974519014 16 0.0714569846789042 0.344652813601047 -0.0259439826205684 0.352937321371282 5.55305012047239 12.3731814314187 3.22044573892485 -19.9210092142411 -5.30506805624386 2.02456678721694 -0.674233035927256 -11.9871428966735 0.436409208243199 -14.0117096838904 3.89467877485211 -32.2941906456599 35.4176690436163 -240.747286147348 243.575276442062
-0.0294500006064773 0.05444999679178 0.00564999974519014 16 0.093462659517924 0.267568561339479 -0.0311936882774656 0.285133740426828 6.06973179337688 19.5832193231907 2.71665797556454 -29.3801389641135 -3.06291983104621 1.81899020852528 -1.14041487793959 -15.4104534884976 -1.15643548465417 -17.2294436970229 3.85707285350413 -48.9633582873042 52.0494111001944 -584.459157102982 584.419000330186
-0.026650000564754 0.05444999679178 0.00564999974519014 16 0.108155190149943 0.177812469950489 -0.0313611146962891 0.210471706272501 2.99412452308198 25.8779877991162 2.05846152615854 -30.921721520161 -1.03238775426538 1.2397728360468 -1.32942477633296 -17.1331402242256 -1.91083013209884 -18.3729130602724 3.3878863024915 -56.7997093192772 59.7933833017778 -818.427542959714 817.330060605098
-0.0238500005230308 0.05444999679178 0.00564999974519014 16 0.110969276030858 0.0904474649081628 -0.0381478171287259 0.1481559316491 -0.625996867712111 28.9953909218998 1.52085430960007 -29.1612321568228 0.614618776484326 0.33584715017494 -0.0604979579950793 -16.4762609191807 -1.4854468287878 -16.8121080693556 1.58135226759515 -58.1566230787226 60.558570497086 -850.037400512096 850.798992127353
-0.0210500004813075 0.05444999679178 0.00564999974519014 16 0.103888312180837 0.010224542991297 -0.0293509984652822 0.108438018231951 -3.78036285838369 29.5337178438371 1.25198305625884 -27.4172089590274 2.43264060458544 -0.651383555502044 3.32745584161394 -15.7478788164131 -0.427642729292364 -15.0964952609111 -2.0754727853551 -56.9509268028646 58.9543876242532 -788.700027443613 786.688365265811
-0.0182500004395843 0.05444999679178 0.00564999974519014 16 0.0897190630435944 -0.0664141012025842 -0.0170505193527788 0.112920606277894 -4.6353664031511 29.3433823108595 1.17511618018334 -25.6601320390331 4.44182476952596 -1.36587513500576 5.36053338519773 -17.3802472843247 0.665898663936321 -16.0143721493189 -4.1854172050144 -55.0035143498926 57.4400942143704 -704.993538514703 702.198203026621
-0.015450000397861 0.05444999679178 0.00564999974519014 16 0.0792836654186249 -0.135250689839789 0.00264013792145609 0.156798019861845 -4.70336732497478 28.8789744723942 1.0628884765927 -23.9469144789016 5.72561484694785 -1.53855449342519 5.2039004050137 -21.1704502866295 1.81627525565925 -19.6318957932043 -4.141011928421 -52.8258889512958 56.5078211907094 -626.788443607436 628.386287831447
-0.0126500003561378 0.05444999679178 0.00564999974519014 16 0.0644582748413085 -0.201041798041824 0.0149206162265182 0.21164899844787 -4.03710272474481 26.2427584393408 0.800378413563724 -22.6834739833687 5.45603122895129 -1.21392388946853 -0.801820743316895 -23.5560903687178 2.60859656696034 -22.3421664792493 1.60219915688062 -48.9262324227094 53.8099959506204 -546.986324438437 548.998240968191
-0.0098500003144145 0.05444999679178 0.00564999974519014 16 0.0554725837707519 -0.263363210482833 0.00242923674949755 0.269152910772322 -4.67308980382512 19.6627961113916 0.565108506546651 -23.1106311680377 4.26261428039476 -0.596891463147754 -8.0603047829017 -20.5436193126914 2.21635662277134 -19.9467278495436 8.62541328944836 -42.7734272794292 47.9774508237586 -429.988999343764 425.882924994777
-0.00705000027269125 0.05444999679178 0.00564999974519014 16 0.0341366259256999 -0.333637877285025 -0.0231661076405241 0.336178837721919 -6.62536600577499 9.3569408358356 0.583828471416234 -22.8787862999041 3.52679372837755 -0.0405030238648511 -13.283562899874 -10.9611218552535 0.303132517654919 -10.9206188313887 13.8673913712902 -32.2357271357397 36.751959989569 -179.067825206773 197.081236153678
-0.004250000230968 0.05444999679178 0.00564999974519014 16 0.0128857310612995 -0.398200337502252 -0.0663696559648573 0.403899098890781 -9.55778634095463 -2.43011773860232 0.924603396642289 -16.6476010805423 4.00788115806161 -0.0313277976259939 -10.1164116454464 2.78965645987009 -1.97731678210431 2.82098425749609 11.0410150420887 -14.21748334194 18.2208341718761 27.4949971253162 -58.3471194602374
-0.00145000018924474 0.05444999679178 0.00564999974519014 16 -0.0239428647359212 -0.435978229178387 -0.0754629492503591 0.443108264196062 -13.7634057097268 -13.4738809890088 1.40214256094681 1.31252504505941 5.18403183562685 -1.05676681363624 3.25983966144987 16.7715276842538 -2.54119649427467 17.8282944978901 -1.85769710050307 14.7864060340682 23.2365429146645 -7.00184857919035 -18.710418362194
0.0013499998524785 0.05444999679178 0.00564999974519014 16 -0.0668523565928141 -0.398729955835443 -0.0438812888799779 0.406669869521108 -16.3561093829844 -22.5380366828005 1.69636507075198 32.0003873871129 5.837748844269 -3.18801572185283 21.5176356336339 28.6182618560592 -0.585171490030012 31.8062775779121 -19.8212705628819 54.5384240699134 66.1737240913633 -582.156403070915 686.63179409159
0.00414999989420176 0.05444999679178 0.00564999974519014 16 -0.117064994573593 -0.257060723931839 0.0524815551035378 0.287295566218768 -15.5274810882714 -28.1634382313924 1.48084688321624 64.7023687996089 5.12631351010159 -5.58550338541558 37.1539343484738 37.4648343941295 3.25407224471967 43.050337779545 -35.6730874652576 92.8658070310013 108.397227214334 -2015.32446420918 1863.03695176639
0.006949999935925 0.05444999679178 0.00564999974519014 16 -0.156570066610972 -0.0256889553670771 0.175834106217759 0.236836950444423 -8.49918213144927 -28.5305548820172 0.88387544590704 80.1132646623858 2.81728179987089 -6.95461858544912 35.8020662847552 42.8174543129994 6.87231110629596 49.7720728984486 -34.9181908388482 108.643819544403 124.499071551813 -2612.68196232679 2488.81801258644
0.00974999997764826 0.05444999679178 0.00564999974519014 16 -0.168232100804647 0.20877515287449 0.261140044894613 0.374276939239478 2.37346021913158 -22.5597219520943 0.305781491156552 67.0914061946078 -0.741894532221227 -6.63749948281792 16.4535232310299 42.902288523949 8.43455356886377 49.5397880067669 -16.1477417398733 89.6511281467021 103.69312868763 -1798.13338747137 1805.29687517477
0.0125500000193715 0.05444999679178 0.00564999974519014 16 -0.146163705587387 0.365256191027972 0.267934336241839 0.47598815368941 14.4341269219797 -11.6591923507601 0.0676282627098767 33.9088982781361 -4.79120078150335 -5.0949520897233 -13.5763181243092 36.0880856628118 7.40505458373485 41.1830377525351 13.6439463870191 45.5680906288961 62.9178095224387 -587.025423543017 582.385171925989
0.0153500000610948 0.05444999679178 0.00564999974519014 16 -0.0861243967215219 0.405969684238856 0.172253935525465 0.449333077500036 22.5680765895643 0.934335687836201 0.10276833129914 0.456406564848708 -8.47829603878612 -3.44672705852148 -35.9748437610392 22.8995795971893 4.52206541783754 26.3463066557107 36.0776120923384 -0.477929122987494 44.6760605350179 -16.5131866997474 -45.4246866319638
0.018150000102818 0.05444999679178 0.00564999974519014 16 -0.0139171902338664 0.367325145938278 0.045884387230423 0.370441396193912 23.1581906160745 12.5423869762226 0.203058652747082 -18.8713742326084 -10.8125312633336 -2.40145313377964 -37.1020081215776 5.96250470909368 1.63648294133534 8.36395784287332 37.3050667743246 -31.413761208831 49.481796563177 -57.4823742526652 28.3494386924504
0.0209500001445413 0.05444999679178 0.00564999974519014 16 0.0519646485646565 0.295830942161071 -0.0540679915070844 0.305187841740075 15.0922134398445 21.9560568925805 0.420361547010571 -26.0821944948102 -10.9508447198135 -1.87639003796629 -20.8151635558897 -10.8158531686724 0.0375017922225815 -8.93946313070612 21.2355251029003 -48.0382513873907 53.2779046492944 -356.470979118442 396.000104318468
0.0237500001862645 0.05444999679178 0.00564999974519014 16 0.0777322498957316 0.215893618005211 -0.0806767983232081 0.243230554735453 2.95213474854011 29.2937549758273 0.696185407099339 -27.4935825538199 -8.74202327461014 -1.44852816097828 0.155126111930409 -24.9312775989881 -0.075036749663094 -23.4827494380098 0.541059295168929 -56.7873375296472 61.4535106404452 -693.397304359077 743.795440246977