TITLE="DynamicStudio Exported Data"
VARIABLES= "X (m)[m]" "Y (m)[m]" "Z (m)[m]" "Status[-]" "U[m/s]" "V[m/s]" "W[m/s]" "Length[m/s]" "dU/dX[1/s]" "dU/dY[1/s]" "dU/dZ[1/s]" "dV/dX[1/s]" "dV/dY[1/s]" "dV/dZ[1/s]" "dW/dX[1/s]" "dW/dY[1/s]" "dW/dZ[1/s]" "Vorticity X[1/s]" "Vorticity Y[1/s]" "Vorticity Z[1/s]" "Vorticity Magnitude[1/s]" "Lambda-2[1/s²]" "Q-Criterion[1/s²]"
ZONE T="DynamicStudio Data" I=26 J=26 F=POINT
-0.0350500006899238 0.0600499968752265 0.00564999974519014 16 0.185193289717039 -0.172007019340914 -0.427470212660264 0.496602206973123 -6.06641845519004 13.415120247538 -3.23917491945294 -6.670961351238 -1.25108980371462 -5.73276332194901 7.68251666754028 -21.4115810710538 -6.73982338214363 -15.6788177491048 -10.9216915869932 -20.086081598776 27.7229029346447 -70.0138054549411 48.537584908986
-0.0322500006482005 0.0600499968752265 0.00564999974519014 16 0.168596536119779 -0.189451599602277 -0.404911257543912 0.477775917213542 -11.2570702298304 12.6159360910682 -2.55775173478223 -11.4559468585238 -0.899724587837044 -5.06632311614913 9.94762704621956 -21.6279627144435 -6.7094535023373 -16.5616395982944 -12.5053787810018 -24.0718829495921 31.7825101805849 -41.6094823745859 152.09051874823
-0.0294500006064773 0.0600499968752265 0.00564999974519014 16 0.121568488279978 -0.233022775481804 -0.373275713172431 0.456523021632326 -21.1706302940807 10.2342502300328 -1.4842927707778 -18.2517133175654 0.271883206941126 -3.87540399727221 23.5656296095615 -21.5108674499096 -6.606695130817 -17.6354634526374 -25.0499223803393 -28.4859635475982 41.8325029335495 163.27180216299 270.723304950375
-0.026650000564754 0.0600499968752265 0.00564999974519014 16 0.0458437450726827 -0.285700214694177 -0.271135724745691 0.396536054945775 -30.2677672438672 5.83177262889918 -0.524818191674106 -17.6348102577087 2.78022558734353 -2.5209795374732 37.0184328166786 -19.0000299515289 -6.05022355073082 -16.4790504140557 -37.5432510083527 -23.4665828866079 47.2412458684062 79.4585140997469 156.526014945848
-0.0238500005230308 0.0600499968752265 0.00564999974519014 16 -0.056557895342509 -0.322847270315591 -0.156699111448446 0.363295701880073 -35.8906536440264 -0.541564766821764 0.203283743062012 -7.24518778037315 6.20133090364056 -1.25392705682318 44.2254979885517 -12.7226116154739 -4.97365540951904 -11.4686845586508 -44.0222142454897 -6.70362301355138 45.9828732691798 54.7938896786828 -103.772649080732
-0.0210500004813075 0.0600499968752265 0.00564999974519014 16 -0.167660706440608 -0.317182165934816 -0.00521606451986978 0.358806140137457 -34.8201179172467 -8.29218735477097 0.935716156223931 15.211311632941 9.17187938361945 0.139193279038883 37.9969341952758 -3.12510654833601 -3.79626181958803 -3.26429982737489 -37.0612180390519 23.5034989877119 44.0068631075486 39.9432359981885 -130.982798389032
-0.0182500004395843 0.0600499968752265 0.00564999974519014 16 -0.265300631125768 -0.230181434099795 0.0783909477569008 0.359879227200174 -24.6397603553979 -15.8200115328127 1.71578202264314 40.645247975087 10.1882478284136 1.86823319173952 17.6776622039175 6.6712710126758 -3.7051961935724 4.80303782093628 -15.9618801812743 56.4652595078996 58.8742415876855 -68.984371451106 402.723491043929
-0.015450000397861 0.0600499968752265 0.00564999974519014 16 -0.316891483465831 -0.0869020304848285 0.108394923253606 0.346008142364766 -8.76731097879378 -21.2521974319294 2.18039611801152 59.4883419809748 8.11283487490298 3.53034660514223 -0.082711144438236 13.7765072001024 -4.76761907106672 10.2461605949602 2.26310726244975 80.7405394129042 81.4195318465158 -1152.53567289665 1147.79503279805
-0.0126500003561378 0.0600499968752265 0.00564999974519014 16 -0.321266746520996 0.0983812454249952 0.0855601742502768 0.346715640387475 7.70151490134015 -23.2578233794459 2.04106366383958 61.52957914015 3.21875737071645 4.30487706243863 -7.96676820278978 17.1734528065682 -5.38239249221681 12.8685757441296 10.0078318666294 84.7874025195959 86.3403762232543 -1266.39289428701 1339.38727864462
-0.0098500003144145 0.0600499968752265 0.00564999974519014 16 -0.274523251056671 0.246646558614448 0.0665299938848087 0.374998373774323 20.8449765456653 -21.3711355422268 1.5188302086255 48.0703262657331 -2.87677033532318 3.71794344902244 -5.60341303424805 16.9949107496239 -4.03748034716601 13.2769673006014 7.12224324287355 69.4414618079599 71.0571659126527 -611.601855816157 840.129484468424
-0.00705000027269125 0.0600499968752265 0.00564999974519014 16 -0.198582274119059 0.353752495732236 0.0563578365151382 0.409575333202269 29.495082616288 -16.118789425094 1.12379742737818 26.7931959589343 -7.98565083451569 2.20249670478914 -6.53964827504588 13.8082122948137 -0.952385908208848 11.6057155900246 7.66344570242406 42.9119853840284 45.1094172428508 7.00560238581172 152.787870685033
-0.004250000230968 0.0600499968752265 0.00564999974519014 16 -0.0972319173812866 0.38590781178728 0.0279984714308133 0.398952126649991 33.6606600090731 -8.70528847962305 1.15891947561504 5.4455909776966 -10.3186255394965 0.721105072089646 -15.0295022664183 8.16991856366525 1.7398267468514 7.4488134915756 16.1884217420334 14.1508794573196 22.7551578844404 67.165386236943 -247.788596576418
-0.00145000018924474 0.0600499968752265 0.00564999974519014 16 0.00563975254694626 0.380674309517102 -0.0368287261121441 0.382493257198289 31.5797670833194 -0.872808196954571 1.46001247612711 -10.7937907764016 -9.73455102699221 -0.00413910567467298 -24.5847129139676 1.58250886170853 2.37542329177535 1.58664796738321 26.0447253900947 -9.92098257944706 27.9154270567286 97.8201125598258 -229.043590377087
0.0013499998524785 0.0600499968752265 0.00564999974519014 16 0.0943295788764953 0.328272382763874 -0.123115544547327 0.363067850471056 24.5420195013725 5.79856345215735 1.67868131310294 -22.7032374153717 -7.55752261473889 0.0461330327960571 -26.7423953296387 -4.81089985298049 0.896276519072984 -4.85703288577654 28.4210766427416 -28.501800867529 40.5425827825311 10.0746707716917 6.5060017853699
0.00414999989420176 0.0600499968752265 0.00564999974519014 16 0.154085552692413 0.258855292425918 -0.202865748580468 0.363184432365358 14.7516953497281 10.3672400582555 1.63153722106776 -29.2512129004978 -5.23647881868636 0.399462647006365 -19.2621501140516 -10.1704763761188 -1.37868186370415 -10.5699390231252 20.8936873351194 -39.6184529587533 46.0205562358308 -114.728693025273 248.378589718861
0.006949999935925 0.0600499968752265 0.00564999974519014 16 0.182773618300756 0.1690816715577 -0.243406195538118 0.348197333748892 7.76618939324268 12.7409920563105 1.48585034419417 -32.3022325194513 -3.46629069290173 0.643657662540307 -7.2280765200583 -13.7603005436137 -2.98386434504266 -14.403958206154 8.71392686425247 -45.0432245757618 48.0863661923282 -392.864300038383 391.409066368017
0.00974999997764826 0.0600499968752265 0.00564999974519014 16 0.200072511037191 0.0809563635227581 -0.250079914074546 0.330337563548393 3.46796170780231 13.4666470666729 1.43135819402584 -31.1191298593696 -2.10380450551885 0.674827257581714 5.30061160148575 -15.5472667561058 -3.43051578243064 -16.2220940136875 -3.86925340745991 -44.5857769260426 47.6027200926469 -410.837062543595 409.999308098882
0.0125500000193715 0.0600499968752265 0.00564999974519014 16 0.2021770632267 -0.0028206520878346 -0.214668637901389 0.294900229012477 1.51723553210674 13.2905484813299 1.51583269818024 -29.1204669296101 -0.954231389168073 0.490499630608788 12.7056444818134 -16.3486981070882 -3.52755982608149 -16.8391977376969 -11.1898117836332 -42.41101541094 46.9836641439276 -377.116536478176 372.352551986378
0.0153500000610948 0.0600499968752265 0.00564999974519014 16 0.208001532951991 -0.080774153425203 -0.180532644634368 0.287021144431234 -1.41143411975366 12.6346201128002 1.62800420310663 -26.6332276451024 0.0727681172826774 0.16529544282621 12.8292015403185 -17.1050739996605 -4.75207217697053 -17.2703694424867 -11.2011973372118 -39.2678477579026 44.3361742824632 -329.218189531645 324.70084048584
0.018150000102818 0.0600499968752265 0.00564999974519014 16 0.1923396585385 -0.150666196132079 -0.148145292852423 0.285730423122823 -6.37929183262947 11.1936239720341 1.55442833712911 -27.7907493227317 1.03856416575412 -0.343154272931776 6.00102833798479 -17.2745249614496 -7.81124666045555 -16.9313706885178 -4.44660000085568 -38.9843732947658 42.7343529978547 -316.676286010773 330.915639517879
0.0209500001445413 0.0600499968752265 0.00564999974519014 16 0.168057966629664 -0.236001792164752 -0.153771122308293 0.32800287210423 -12.9423538570914 8.6436102977945 1.35418925604321 -30.0393976856969 1.78141481447 -0.959975961404357 -1.16690163391304 -15.680982966139 -11.5288720977512 -14.7210070047346 2.52109088995625 -38.6830079834914 41.4661193404896 -181.797348942017 351.793023950498
0.0237500001862645 0.0600499968752265 0.00564999974519014 16 0.113698674837748 -0.318901034915665 -0.156410764067744 0.372947162271544 -22.0904872944823 4.89220439247458 1.21949452804474 -30.0780124538993 2.11630878603981 -1.45950990439939 0.496466923252922 -11.8512550256417 -13.1099975259842 -10.3917451212423 0.723027604791819 -34.9702168463739 36.4887270518522 116.904928945785 344.356460338156
0.0265500002279878 0.0600499968752265 0.00564999974519014 16 0.0363556307554245 -0.405221045014769 -0.141562933280935 0.430773596323624 -30.8839134724478 0.559592995555065 1.35346788611002 -23.4237278260318 1.80959518493254 -1.70436841322932 9.8538924262856 -7.06712866649852 -10.9573780844279 -5.36276025326921 -8.50042454017558 -23.9833208215869 26.0041552934993 145.028314754066 250.416753109353
0.029350000269711 0.0600499968752265 0.00564999974519014 16 -0.0662955900033315 -0.451599693152821 -0.0851086537520556 0.46430687164105 -34.0420359866688 -3.3335022131577 1.84886974321499 -11.8939275868463 0.85624001735662 -1.59189081840118 18.9667592378514 -3.00990590075025 -6.26255446632695 -1.41801508234906 -17.1178894946364 -8.56042537368857 19.1915030704435 27.52085607267 99.1727584988986
0.0321500003114343 0.0600499968752265 0.00564999974519014 16 -0.159224578539531 -0.473657610333369 -0.0186073872093887 0.500050230573459 -24.7110521848248 -6.054607392909 2.50187134042196 -3.39345824226179 -0.438428960363966 -1.35941466351896 16.7281643445704 -0.355258461135422 -1.85174310150276 1.00415620238354 -14.2262930041484 2.66114915064721 14.5078412288203 6.9224981141556 -5.47629673821244
0.0349500003531575 0.0600499968752265 0.00564999974519014 16 -0.206973874171575 -0.472947905971669 0.0188576098562529 0.516598021484856 -16.787969989363 -7.18099145684236 2.82730074358052 0.491017704098472 -1.29188699324973 -1.20589728434177 12.1098843288363 0.798248615455131 0.252214825928913 2.0041458997969 -9.2825835852558 7.67200916094083 12.2083038695182 8.46728081819171 -12.621533101061
-0.0350500006899238 0.0572499968335032 0.00564999974519014 16 0.147819192409515 -0.167183433225825 -0.366232918401171 0.42886753725412 -5.22212193859152 23.7316172404204 -2.81634401058639 -6.8507022253559 -0.715562555022321 -4.84720533526357 7.1711236792118 -36.128754231831 -6.31078489714944 -31.2815488965675 -9.98746768979818 -30.5823194657763 44.8727431313253 -117.00444358726 48.8593085377606
-0.0322500006482005 0.0572499968335032 0.00564999974519014 16 0.132839667399724 -0.185615305832131 -0.345608630622737 0.414179604223758 -9.76508272718337 22.2245922843971 -2.18781581702394 -11.8913398516476 -0.337377675818441 -4.26816981482076 9.95204943318501 -35.8905850748904 -6.13024070465485 -31.6224152600697 -12.139865250209 -34.1159321360447 48.0754646434616 -143.839804241805 198.091354121212
-0.0294500006064773 0.0572499968335032 0.00564999974519014 16 0.09172536333402 -0.231957729323185 -0.307967675879287 0.396310509396377 -17.9131768783335 18.2690466530148 -1.17490090275597 -19.4210908688132 0.876856936960389 -3.24981825541494 21.9236944055668 -34.2921040127057 -5.67405733118375 -31.0422857572908 -23.0985953083227 -37.690137521828 54.0158780051688 -63.0056246183948 350.07764049753
-0.026650000564754 0.0572499968335032 0.00564999974519014 16 0.0289260450998943 -0.292062671334315 -0.215640323731738 0.364195097840685 -25.1379669046847 11.3492854317963 -0.231223408057769 -19.7962995792417 3.37160968294038 -2.18773439531048 32.5051989895376 -28.9738808143636 -4.87272900997322 -26.7861464190531 -32.7364223975954 -31.145585011038 52.5282634117723 135.173653066776 190.108809335475
-0.0238500005230308 0.0572499968335032 0.00564999974519014 16 -0.0560216410954792 -0.341088194842256 -0.114595506097442 0.364158908925085 -29.007963971604 1.46124121876505 0.561421737578779 -9.63589448919029 6.78343727452484 -1.26128281146924 36.4363664192719 -18.7639881966277 -3.80360002959359 -17.5027053851585 -35.8749446816931 -11.0971357079553 41.4306984328646 54.3194035775378 -142.282991386245
-0.0210500004813075 0.0572499968335032 0.00564999974519014 16 -0.143372025887171 -0.344112298939872 0.00295060381448517 0.372796885919861 -26.9265501517216 -10.7314753565327 1.38564709992738 13.2603557274377 10.1349170621856 -0.140310705820684 28.2396212174878 -4.41671200527253 -2.83596854900215 -4.27640129945185 -26.8539741175604 23.9918310839704 36.2633629541212 45.4635334964531 -122.724489744243
-0.0182500004395843 0.0572499968335032 0.00564999974519014 16 -0.218966932296753 -0.26197250647548 0.0593178171695521 0.34654684390751 -17.5542706461844 -23.2012581052574 2.14467284045184 40.2191355831238 12.173195878054 1.45734270300754 9.19669901302047 10.5561049764085 -2.87737389590972 9.09876227340099 -7.05202617256863 63.4203936883812 64.4566899835519 -610.408581132539 699.81856127719
-0.015450000397861 0.0572499968335032 0.00564999974519014 16 -0.254668941100438 -0.111364467929428 0.0679883550604184 0.286148092256867 -4.36355802158891 -32.8797721386368 2.44568316612972 61.5897481969054 11.1897063719235 3.14482930418097 -5.56647834037085 22.1524233007626 -3.91818728078464 19.0075939965816 8.01216150650056 94.4695203355422 96.6952616934902 -1862.35920532151 1893.43207856561
-0.0126500003561378 0.0572499968335032 0.00564999974519014 16 -0.253311361074448 0.0884540394012583 0.0364156831886309 0.270770871250737 7.88775319454016 -36.8012214065362 2.08068250105896 65.8673995427277 6.38183892147736 4.01320908645145 -9.03791170865714 27.5750188004073 -4.50475840433157 23.5618097139559 11.1185942097161 102.668620949264 105.922744213982 -2262.47074927077 2318.19876810307
-0.0098500003144145 0.0572499968335032 0.00564999974519014 16 -0.212594644228617 0.255762295327149 0.0181651773241659 0.333077780905486 16.9081751043799 -33.6795542041905 1.38311527737164 53.1216112820216 -0.975423928708907 3.52148918935413 -3.06309030561373 26.1653535966218 -3.25133505468953 22.6438644072677 4.44620558298538 86.8011654862121 89.8162327708398 -1559.79566618162 1632.9124327556
-0.00705000027269125 0.0572499968335032 0.00564999974519014 16 -0.15175901889801 0.378192379019456 0.0154573632023918 0.407797995878417 22.8151834584993 -24.8136356441608 0.89665692560034 30.1774150200935 -7.70796783975897 2.12145587462951 -1.42474731594178 19.5723627271534 -0.353839645424628 17.4509068525239 2.32140424154212 54.9910506642542 57.7402694900768 -372.484231843496 527.362754477191
-0.004250000230968 0.0572499968335032 0.00564999974519014 16 -0.0728099592526754 0.417493137076187 0.00514084288384764 0.423825716465681 25.9701342487812 -12.9143777079038 0.88294615451645 6.00387139165774 -10.8728090798856 0.794580708416088 -8.67584286463248 9.98323360997961 2.24758974462151 9.18865290156352 9.55878901914893 18.9182490995616 23.1019899283823 44.1423301554042 -171.171638123209
-0.00145000018924474 0.0572499968335032 0.00564999974519014 16 0.0068394343058269 0.409115445427597 -0.0402910845049579 0.411151549966226 24.493627736706 -0.748539361887979 1.19012895794659 -12.2789725154309 -10.1405992589856 0.208756852328669 -18.3701280494331 -0.389207422355175 2.87220564138622 -0.597964274683845 19.5602570073797 -11.5304331535429 22.713698601876 102.24620391013 -194.402437094153
0.0013499998524785 0.0572499968335032 0.00564999974519014 16 0.0764359748363495 0.350024808276018 -0.10890969573622 0.374461141486272 18.9671746334074 9.68865430298654 1.46674524935821 -24.653156585685 -7.43117448706079 0.345506837403206 -20.9417335660379 -10.2733178122608 1.47842943202474 -10.618824649664 22.4084788153961 -34.3418108886715 42.3586984558502 5.25956056032645 149.228379321158
0.00414999989420176 0.0572499968335032 0.00564999974519014 16 0.122874027093252 0.273305632408786 -0.170800344434877 0.344915573582221 11.3915280234562 17.1007742951908 1.48856029179852 -30.7030822912107 -4.80306719138539 0.70940840969854 -15.1345452221607 -18.4150589600398 -0.714884808321646 -19.1244673697384 16.6231055139592 -47.8038565864015 54.1043583608349 -507.401721531627 501.214696103868
0.006949999935925 0.0572499968335032 0.00564999974519014 16 0.146228108406067 0.17897659131481 -0.204100998125602 0.308338283971601 6.37960128204337 21.0562790666436 1.38283020397067 -33.0983742480835 -3.1451187806351 0.899887947022503 -4.96452706006338 -23.6096052560941 -2.44657265396573 -24.5094932031166 6.34735726403405 -54.1546533147271 59.7806881605523 -703.236605202871 697.061701748067
0.00974999997764826 0.0572499968335032 0.00564999974519014 16 0.160888674259186 0.0871702153389924 -0.203613267219237 0.273755684022848 3.36253850307732 22.3064053791138 1.37401779928776 -31.7535864348372 -2.16868253899624 0.850965294009225 6.01061924700882 -25.9875069574481 -3.26495643479168 -26.8384722514573 -4.63660144772106 -54.059991813951 60.5333328068239 -709.881181827062 710.973973674221
0.0125500000193715 0.0572499968335032 0.00564999974519014 16 0.165556083917618 -0.000415290889407819 -0.17171876691437 0.238529504043529 1.72730764490735 22.2604559994858 1.57695252404611 -29.6161224856964 -1.4217614462259 0.611625711701203 13.3915630794012 -27.1162894168981 -3.81823133205451 -27.7279151285993 -11.8146105553551 -51.8765784851823 59.9966807022088 -649.126256927595 651.113086598054
0.0153500000610948 0.0572499968335032 0.00564999974519014 16 0.171593194405238 -0.0802619318578703 -0.131146939182266 0.230403389143103 -0.826453331309996 21.6840458877515 1.87696985587027 -27.1686075306938 -0.733059173365033 0.30428251179642 13.5379885220103 -28.2588696986536 -5.265790364998 -28.56315221045 -11.66101866614 -48.8526534184453 57.7790166630771 -568.078818473801 581.131521006465
0.018150000102818 0.0572499968335032 0.00564999974519014 16 0.161702113946279 -0.154135391478097 -0.101055442899754 0.245188692847911 -4.58703916484791 19.7871444784483 1.99869764385291 -28.2297117165546 -0.0806489101078372 -0.121422990015238 5.084946924534 -27.995091612965 -8.17731505419808 -27.8736686229497 -3.08624928068109 -48.0168561950029 55.6065177472578 -544.386756261399 583.561960826733
0.0209500001445413 0.0572499968335032 0.00564999974519014 16 0.143300858736038 -0.240412929287025 -0.106294886003107 0.299386231268687 -9.60157960833076 15.5041221199859 1.83653908572926 -30.3440897624983 0.415388677611178 -0.603620826026678 -4.72380642493207 -24.0532860735987 -11.4540548375835 -23.449665247572 6.56034551066133 -45.8482118824843 51.9132301659568 -464.288344032893 565.845611234486
0.0237500001862645 0.0572499968335032 0.00564999974519014 16 0.100317219495773 -0.325514326235279 -0.12332367398 0.362259367961267 -17.3284862801445 8.65181549199413 1.52837661522775 -30.0686478709666 0.599084847623254 -0.955745182579903 -5.1290215533511 -16.1474687861414 -12.6238355228238 -15.1917236035615 6.65739816857884 -38.7204633629607 42.1234340891669 -137.897102644439 453.362583088031
0.0265500002279878 0.0572499968335032 0.00564999974519014 16 0.0353120712439219 -0.409693096902532 -0.120883998913948 0.428612082445829 -26.0779876633501 0.528092467531839 1.32900883370269 -22.9241821307562 0.19241243645069 -1.08397218604314 4.75088361887023 -7.01368028850307 -10.3683225532296 -5.92970810245993 -3.42187478516754 -23.4522745982881 24.4311245966954 126.399388917979 261.56175154002
0.029350000269711 0.0572499968335032 0.00564999974519014 16 -0.0567702360947926 -0.453970001881632 -0.0777597819872123 0.464067027496423 -30.094785853281 -6.92738507204934 1.41608321348277 -11.0224553026009 -0.860820487211596 -0.92155407463739 15.5564967630152 0.147183405165646 -5.92265093338192 1.06873747980304 -14.1404135495325 -4.09507023055158 14.7601861555228 14.2695787727136 110.995010226147
0.0321500003114343 0.0572499968335032 0.00564999974519014 16 -0.141658991177877 -0.471043844841576 -0.0181942232024934 0.492220076086511 -22.4143157137524 -12.2643366165925 1.74142051376771 -2.50376854267184 -2.19042614514003 -0.675540873491135 15.2085841801249 4.19214356457559 -1.94472267925236 4.86768443806672 -13.4671636663572 9.76056807392062 17.3299607077075 0.338210569896849 42.5866663063826
0.0349500003531575 0.0572499968335032 0.00564999974519014 16 -0.18702046473821 -0.467274050450263 0.0147826360843222 0.503527773598133 -15.6102033518981 -14.5782006121754 1.90350686039222 1.0116910192367 -2.9691876054808 -0.510433503239261 11.1401516145262 5.65046560826089 -0.117181806205226 6.16089911150015 -9.23664475413395 15.5898916314121 19.1394097415601 0.968766951879461 44.9542554693358
-0.0350500006899238 0.05444999679178 0.00564999974519014 16 0.050698882341385 -0.164710252109605 -0.22233509971605 0.28130542189304 -3.38829517755656 35.6831778811304 -2.24252533787794 -6.92342133548196 2.1791584331549 -3.35477517971298 5.65999410507669 -55.70709469611 -5.91829961275925 -52.352319516397 -7.90251944295463 -42.6065992166124 67.959822462233 -172.337424304799 72.6299781484345
-0.0322500006482005 0.05444999679178 0.00564999974519014 16 0.0421752492586771 -0.184088307691067 -0.204693126697869 0.27850768893505 -6.56504939979075 33.3788939227494 -1.69580116824606 -12.1883972042453 2.12227060992405 -2.88294531217985 8.60727926430879 -54.0967838261294 -5.4539638445569 -51.2138385139495 -10.3030804325549 -45.5672911269947 69.3209112922275 -286.364889027422 275.771325760549
-0.0294500006064773 0.05444999679178 0.00564999974519014 16 0.0148872868220011 -0.233892646527189 -0.16819332516597 0.288472522155575 -11.1664464245509 27.3876757729565 -0.788121694219562 -20.4643623553223 2.248364836252 -2.11622413099816 16.8690342533516 -49.2958345672227 -4.43316752083363 -47.1796104362245 -17.6571559475712 -47.8520381282788 69.4802731003628 -421.302082779404 483.874242433153
-0.026650000564754 0.05444999679178 0.00564999974519014 16 -0.0204874881108601 -0.301389293917843 -0.102443021253372 0.318982470146727 -14.5370274981258 16.9597671338335 0.130724940452403 -22.1193176893535 3.11990168689294 -1.50632769377355 22.1557437770672 -39.2099424008793 -3.18636086328997 -37.7036147071057 -22.0250188366148 -39.079084823187 58.5989666065279 -236.663120065912 304.204133017433
-0.0238500005230308 0.05444999679178 0.00564999974519014 16 -0.068502931992213 -0.361971994911631 -0.0363027851520261 0.37018140012922 -14.8381529914473 2.07706096014928 1.03752450979323 -12.5951694450093 4.99036716123927 -1.14464672187694 20.4566442701768 -23.0906576570498 -2.01286377554396 -21.9460109351728 -19.4191197603836 -14.6722304051586 32.7719995315651 50.873832743709 -75.7195607258825
-0.0210500004813075 0.05444999679178 0.00564999974519014 16 -0.106408318678538 -0.375089459641798 0.0195007299740488 0.390378164717098 -10.7612995512519 -16.0652840451794 2.02257264762122 9.93807675311888 7.92044130371633 -0.557733916484268 9.36159183627191 -2.58018231809409 -1.29247434734419 -2.02244840160982 -7.33901918865069 26.0033607982983 27.0947646787167 -56.0142482183723 57.7219660878793
-0.0182500004395843 0.05444999679178 0.00564999974519014 16 -0.130472892522812 -0.305660052378274 0.0189273508731276 0.332880591074687 -3.05374121207431 -34.2612813310347 2.78220106914909 38.1119214081237 11.3116556371668 0.66556771029813 -6.86055555347072 17.3822846479319 -1.50747191885798 16.7167169376338 9.64275662261981 72.3732027391584 74.9020150274969 -1216.02195737112 1266.29017593279
-0.015450000397861 0.05444999679178 0.00564999974519014 16 -0.123016048669815 -0.15627549812741 -0.0243773362530434 0.200372737836509 4.52832232267034 -47.9751770760246 2.86633341426439 62.6544588281129 13.3376486870899 2.21537233201208 -15.4499292636044 31.7266718133025 -2.46601672565031 29.5112994812905 18.3162626778688 110.629635904137 115.953950410674 -2895.05568614378 2996.19640340711
-0.0126500003561378 0.05444999679178 0.00564999974519014 16 -0.103849864006043 0.056053248299595 -0.0764719008633256 0.140622588941677 8.18614222565175 -53.243997183496 2.17219791907913 70.8857262613523 12.0624787877039 3.14723446930754 -10.5578629538781 37.7074784821124 -2.92679291335859 34.5602440128048 12.7300608729573 124.129723444848 129.478388770282 -3589.53901122341 3717.98054778115
-0.0098500003144145 0.05444999679178 0.00564999974519014 16 -0.0780096340179444 0.252801271157029 -0.0847295624219502 0.277800439968043 8.96014202457361 -48.716020337147 1.17975744833911 60.5037489778669 7.0192772234203 2.87122743608313 2.18207905810477 35.3919255674004 -1.7897975540491 32.5206981313173 -1.00232160976567 109.219769315014 113.962969708509 -2780.8361299171 2877.60306929932
-0.00705000027269125 0.05444999679178 0.00564999974519014 16 -0.0561504634221395 0.402337298810938 -0.0558340723374083 0.4100556306049 9.52096435999567 -36.3396867188669 0.502186074820366 36.0534826122795 0.493615846439008 1.79169716310002 8.60803558537755 26.7069641718309 0.672262547218503 24.9152670087309 -8.10584951055719 72.3931693311463 76.9886114448896 -1249.65592802393 1269.43076179051
-0.004250000230968 0.05444999679178 0.00564999974519014 16 -0.0258200947443645 0.453937406924476 -0.0269265207033216 0.455467764188764 10.5923564797549 -19.5669477875938 0.397049079808419 7.94426472408652 -4.15800383804916 0.822174115166856 3.98723231709829 13.6002352059546 2.84982168137802 12.7780610907878 -3.59018323728987 27.5112125116803 30.5456228415801 -92.0212845417388 116.97382356518
-0.00145000018924474 0.05444999679178 0.00564999974519014 16 0.00596674601236979 0.440356438027423 -0.0317786752921529 0.441541933199441 9.8669280912156 -1.72830871909301 0.746547357541115 -13.9354741964573 -5.17410531035159 0.503558365246077 -5.04103410927929 -2.01949288359514 3.28035148867171 -2.52305124884121 5.7875814668204 -12.2071654773643 13.7432447344547 33.2777051978941 -54.9629151681225
0.0013499998524785 0.05444999679178 0.00564999974519014 16 0.035565946896871 0.370411837415595 -0.0635855264602772 0.377508920492614 6.92610314054515 14.5022687543851 1.17479516660125 -27.3266713760021 -3.55351361093291 0.773367451166543 -8.17249453769293 -18.2337154621882 2.03988255195727 -19.0070829133548 9.34728970429418 -41.8289401303871 46.8860454519536 -407.70600914989 402.268786347506
0.00414999989420176 0.05444999679178 0.00564999974519014 16 0.0516651451587677 0.284655166237305 -0.0902484723336723 0.303055502587275 3.6565360910926 26.8662121874067 1.35511567659504 -32.5108555554827 -1.70033285201916 1.13779994330036 -5.67402990674894 -32.3217286581658 0.142375721838523 -33.4595286014662 7.02914558334398 -59.3770677428894 68.5170425194189 -912.858593579946 911.969359066412
0.006949999935925 0.05444999679178 0.00564999974519014 16 0.061684976418813 0.186293391704094 -0.108249081362349 0.224116326322285 2.9623190179642 34.0629816123966 1.32062049122578 -33.5126004489061 -1.13628179767478 1.23554433367357 0.0566567683353189 -41.608881505922 -1.53544894708894 -42.8444258395955 1.26396372289046 -67.5755820613028 80.0231324102053 -1186.93008770814 1186.70407245433
0.00974999997764826 0.05444999679178 0.00564999974519014 16 0.071995956103007 0.0939223668103417 -0.0981507486434809 0.153747839470082 2.90482852359514 36.6878475434878 1.33761770449226 -31.7710749911464 -1.68100328218188 1.06760564856143 7.15328552655697 -45.3948299125149 -2.73615368319654 -46.4624355610763 -5.81566782206471 -68.4589225346342 82.9409668685313 -1191.60261827675 1196.27617080815
0.0125500000193715 0.05444999679178 0.00564999974519014 16 0.0793708527088166 0.00446752298778544 -0.0697975466879628 0.105789359318551 2.36703194698573 36.5517826005196 1.66835354904659 -29.7334125260716 -2.2931457782679 0.751878598248612 13.430626957352 -45.4477776105638 -3.93014672565465 -46.1996562088124 -11.7622734083055 -66.2851951265912 81.6485541973308 -1073.13154622951 1092.85507499735
0.0153500000610948 0.05444999679178 0.00564999974519014 16 0.0839556690057119 -0.0752265031977246 -0.0182375768923278 0.114193652855391 0.835882830321637 34.8261322485439 2.22216045631869 -27.690654913025 -2.34251062842245 0.49795340565921 12.9962105293255 -43.8024832140744 -5.70537568529712 -44.3004366197336 -10.7740500730068 -62.5167871615689 77.3754322552036 -918.099568962823 963.928153814252
0.018150000102818 0.05444999679178 0.00564999974519014 16 0.0802778180440267 -0.151070680282234 0.00956444594815063 0.171342805910087 -0.296328998825687 30.7699873301932 2.64175604817635 -28.6679866278632 -2.03459859803992 0.255108381975393 1.32487573366127 -39.7644121162056 -8.32894743955718 -40.019520498181 1.31688031451507 -59.4379739580564 71.6670701431674 -849.121788271155 908.774905679461
0.0209500001445413 0.05444999679178 0.00564999974519014 16 0.077677853902181 -0.23615249299289 -0.00824020041230444 0.248736305826955 -1.98878160419605 23.1495015184987 2.58298832622117 -30.3788007930066 -2.05765024394211 0.0402415240486532 -13.2780690802975 -31.3918838093337 -10.8297407388791 -31.4321253333823 15.8610574065187 -53.5283023115052 64.0689534281482 -697.85408249778 786.728474550187
0.0237500001862645 0.05444999679178 0.00564999974519014 16 0.0642480103174845 -0.322876342398231 -0.0649397266898692 0.335550454347435 -6.77045413389597 11.8309779961072 2.04519017079827 -29.184291006386 -3.09099224802655 -0.0307430641700605 -17.3059418908907 -18.5665181038859 -11.3101924791951 -18.5357750397158 19.351132061689 -41.0152690024932 48.9927908955875 -324.790397660421 512.564133269014