TITLE="DynamicStudio Exported Data"
VARIABLES= "X (m)[m]" "Y (m)[m]" "Z (m)[m]" "Status[-]" "U[m/s]" "V[m/s]" "W[m/s]" "Length[m/s]" "dU/dX[1/s]" "dU/dY[1/s]" "dU/dZ[1/s]" "dV/dX[1/s]" "dV/dY[1/s]" "dV/dZ[1/s]" "dW/dX[1/s]" "dW/dY[1/s]" "dW/dZ[1/s]" "Vorticity X[1/s]" "Vorticity Y[1/s]" "Vorticity Z[1/s]" "Vorticity Magnitude[1/s]" "Lambda-2[1/s²]" "Q-Criterion[1/s²]"
ZONE T="DynamicStudio Data" I=26 J=26 F=POINT
-0.0350500006899238 0.0600499968752265 0.00564999974519014 16 0.217433203657468 -0.0849343786834894 -0.337564950666856 0.410415816768576 -2.35279842307022 13.5836216297017 0.386977663026056 -5.77730354446223 -0.888363318943753 -5.57637179399651 3.80525587004995 -12.4225053853502 4.37358309907305 -6.84613359135371 -3.41827820702389 -19.3609251741639 20.8182514791913 0.162899232735274 -4.35370267784558
-0.0322500006482005 0.0600499968752265 0.00564999974519014 16 0.210449964006742 -0.100570069734628 -0.32792643479382 0.402416790049138 -3.51130720613203 12.8757023536569 0.513171763569147 -8.75886407098839 -0.583803344474811 -5.23550983345433 6.91510537711389 -11.4103705691322 3.23878685380073 -6.17486073567783 -6.40193361354474 -21.6345664246453 23.391625071372 -39.0205458825841 38.2755052687492
-0.0294500006064773 0.0600499968752265 0.00564999974519014 16 0.196095513502757 -0.132067915032967 -0.299478368010993 0.381552981253708 -7.50786460116218 11.0902935446991 0.712525077072142 -13.3372196620723 0.162981664222863 -4.35503178990012 8.13659264506869 -9.8440158846706 1.46271283076616 -5.48898409477048 -7.42406756799655 -24.4275132067715 26.1141556844907 -79.2235239470405 87.278053923167
-0.026650000564754 0.0600499968752265 0.00564999974519014 16 0.164482141335805 -0.171334055851136 -0.283720738850534 0.370009717665232 -12.19154967642 8.26587017785227 0.868933516659737 -16.7001674581275 1.50109706840288 -2.84746885272168 8.41847727346457 -8.85276419021353 0.108714545422277 -6.00529533749186 -7.54954375680484 -24.9660376359797 26.7649438308316 18.3721974894784 86.0554416287992
-0.0238500005230308 0.0600499968752265 0.00564999974519014 16 0.122081516583761 -0.219080590551797 -0.253199150549093 0.356384640082449 -18.7731956956142 4.06065170352867 0.868070656655249 -19.2162057460537 3.47216331474282 -0.770893949774976 15.2096962782819 -7.55699466641379 0.476646889446628 -6.78610071663882 -14.3416256216266 -23.2768574495823 28.1699393172126 9.69995358091511 -13.475204789029
-0.0210500004813075 0.0600499968752265 0.00564999974519014 16 0.0495842762788137 -0.270375681473985 -0.191656428046214 0.33510266486265 -26.0879902824972 -1.51519256322699 0.729484088374176 -19.5733923546507 5.91171247138697 1.36569009915065 29.017489715311 -4.26862707402711 2.8160627255834 -5.63431717317776 -28.2880056269368 -18.0581997914237 34.0302126361936 11.4769879704541 -256.03799522415
-0.0182500004395843 0.0600499968752265 0.00564999974519014 16 -0.0354179139931996 -0.319974862878444 -0.0763356394790268 0.330855665450027 -32.7564747725392 -7.507902685849 0.945218153522915 -10.3889349345754 7.95319231539788 2.66198765785252 44.9920138292756 1.41896142491502 5.72863353728021 -1.2430262329375 -44.0467956757527 -2.88103224872638 44.1584156230211 74.3607816074064 -526.911097692584
-0.015450000397861 0.0600499968752265 0.00564999974519014 16 -0.143582991758982 -0.324460976498279 0.0781998695867757 0.36332660292919 -34.7855303988834 -12.4540978635568 1.82201964874419 10.9149993258536 8.59106413148552 2.39938950992374 50.403442448933 7.71602300746937 6.88391301761508 5.31663349754563 -48.5814228001888 23.3690971894104 54.1713571593516 40.8315473333473 -453.578487216083
-0.0126500003561378 0.0600499968752265 0.00564999974519014 16 -0.234932518005371 -0.261120682666054 0.215577809662791 0.412129944254645 -28.5255513973865 -15.0053511074287 2.91110697402846 40.3798971898794 7.0253301206164 0.710428991276305 45.0276641050286 12.0360926725294 5.23964689628231 11.3256636812531 -42.1165571310001 55.3852482973081 70.4953953910758 69.6922317663284 153.228415717937
-0.0098500003144145 0.0600499968752265 0.00564999974519014 16 -0.303381316661835 -0.107727999119088 0.33011739047671 0.461110655470922 -11.9122905586586 -14.4350247346677 3.38056352096523 63.8919711254436 3.26958160165194 -1.32144070969453 28.4310274976578 13.1419481421519 2.46226723307105 14.4633888518464 -25.0504639766926 78.3269958601113 83.4975068070729 -661.181458754527 783.306729286115
-0.00705000027269125 0.0600499968752265 0.00564999974519014 16 -0.297384244600932 0.0849602166675807 0.368287531823347 0.480927576096029 8.9989661775565 -10.8374348039763 2.69673204850248 68.018611605207 -1.30760019531142 -2.41145398633966 9.65527273661393 11.709902097289 1.36970103287739 14.1213560836287 -6.95854068811145 78.8560464091833 80.4121262088997 -650.080335721501 738.115297393459
-0.004250000230968 0.0600499968752265 0.00564999974519014 16 -0.246399455070496 0.26410434928194 0.381125019661461 0.525090543983248 26.8289294688579 -5.72722050149882 1.21262396933651 50.4006134730746 -5.18450458897969 -1.97650819973297 -11.0398110267639 9.66136711733781 3.08359016022458 11.6378753170708 12.2524349961004 56.1278339745734 58.616516886511 -41.5280667601046 248.786165201765
-0.00145000018924474 0.0600499968752265 0.00564999974519014 16 -0.140507498582204 0.363425023342328 0.308673143804772 0.497090750724172 35.6496809700659 -0.730590807060589 -0.244247495799882 20.9506586082507 -7.38647575159205 -0.34948326790875 -28.0937447364718 7.88525447015633 5.73957480709233 8.23473773806508 27.849497240672 21.6812494153113 36.2419919207243 37.9336504595147 -89.906427115701
0.0013499998524785 0.0600499968752265 0.00564999974519014 16 -0.0406606364250184 0.382731090334904 0.225585202346556 0.446122246005698 34.9300256401635 3.50627528511925 -1.06691081438382 -4.65131228820397 -8.06868654147764 1.6257589847758 -38.1566610553178 5.73664282907124 6.53648263939986 4.11088384429544 37.089750240934 -8.15758757332322 38.1981043238089 75.566326834145 -139.988122709671
0.00414999989420176 0.0600499968752265 0.00564999974519014 16 0.0612333178520204 0.340391883478927 0.0885187025108219 0.357003801447124 27.7459192730148 7.29326536980042 -1.10006200668738 -20.1293519050058 -7.44728734883325 3.27191909022987 -36.3777510348436 2.39737688081713 4.57057195143566 -0.874542209412748 35.2776890281562 -27.4226172748062 44.6909398585869 34.4404906259659 -14.9085756781717
0.006949999935925 0.0600499968752265 0.00564999974519014 16 0.122244624694188 0.274983702621733 0.00805845542810857 0.301039405523708 15.4522413361897 10.5178665635544 -0.785384611128053 -26.21409001647 -5.40161800096481 4.33904003365725 -23.1470962535936 -1.2927659990505 1.50592181249406 -5.63180603270774 22.3617116424656 -36.7319565800244 43.3704971261297 -29.7234561180906 194.814639065256
0.00974999997764826 0.0600499968752265 0.00564999974519014 16 0.153308733304342 0.200018451952686 -0.0533818072491946 0.257605446708956 4.85548922485087 12.2352470550224 -0.65235629415265 -29.5923179625023 -2.44174224193486 4.61150449419178 -12.0864173664741 -4.1538150733349 -0.889564269932113 -8.76531956752668 11.4340610723214 -41.8275650175247 44.2392786449067 -325.365741546449 359.336971419706
0.0125500000193715 0.0600499968752265 0.00564999974519014 16 0.150759712457657 0.114927539958003 -0.0678119499383805 0.201333779817395 -2.58117741631432 12.0301053973662 -1.05701949468863 -30.8652617551048 0.0647568413911917 3.90717130779083 -8.6174463292001 -6.61157416214403 -1.93509914049745 -10.5187454699349 7.56042683451147 -42.8953671524711 44.8086663863875 -382.630778015568 392.738470527584
0.0153500000610948 0.0600499968752265 0.00564999974519014 16 0.135142484108607 0.0283430322717565 -0.107138405685546 0.174772584984727 -2.94108086825488 10.6877195697156 -1.79998659108384 -29.6709380281784 0.937948787269245 2.29653504409981 -17.1657881276127 -10.5059859872553 -2.32400139370275 -12.8025210313551 15.3658015365288 -40.358657597894 45.0425759112679 -326.613550546234 312.240540067387
0.018150000102818 0.0600499968752265 0.00564999974519014 16 0.129937529365222 -0.0551207067910582 -0.174725358341238 0.224613010981461 -1.95672896253511 9.48130318160045 -2.34427594057875 -25.573184860466 0.416993834259378 0.294903128809623 -20.6030810788797 -16.5563280294589 -2.55453793870349 -16.8512311582685 18.2588051383009 -35.0544880420665 42.9670232680741 -228.76630785591 202.167692531709
0.0209500001445413 0.0600499968752265 0.00564999974519014 16 0.121651816765467 -0.120462435098598 -0.235056777806797 0.290795549458957 -2.66841492290767 8.52470612903046 -2.31359669713827 -22.0685035462988 -0.127008137017644 -1.24582978850838 -12.9695941339136 -22.2695015761971 -2.44806025284101 -21.0236717876888 10.6559974367753 -30.5932096753293 38.6198075480404 -152.809002527615 137.559363340384
0.0237500001862645 0.0600499968752265 0.00564999974519014 16 0.113750650087992 -0.1809680190923 -0.255030508249377 0.332759965241565 -7.18678602952313 7.02705824595011 -1.77707927284828 -20.9136401314051 0.476522279301486 -1.73856762685989 5.45636122312115 -24.0135107659441 -1.77995965180975 -22.2749431390842 -7.23344049596943 -27.9406983773553 36.4578987199277 -123.005312527077 123.427976416839
0.0265500002279878 0.0600499968752265 0.00564999974519014 16 0.078880802989006 -0.234980612990767 -0.199730182245245 0.318324072701745 -13.3520353153005 4.58897690709016 -1.23370006497818 -20.7962693826763 2.34074795474634 -1.09254049182202 22.2251567583006 -20.4030286715908 -0.49428265980205 -19.3104881797688 -23.4588568232787 -25.3852462897665 39.5932272792732 -44.4707765684543 74.7505813565039
0.029350000269711 0.0600499968752265 0.00564999974519014 16 0.0346119741598765 -0.290778851363575 -0.116254628745761 0.31506422815099 -15.5877381211486 1.84201513821004 -0.984891134583732 -18.1011622970515 4.81479596117375 0.246747468379985 27.1660349565151 -13.6768975475461 0.99693770004935 -13.9236450159261 -28.1509260910989 -19.9431774352615 37.2031296604245 -28.3240668963588 -22.3187889232917
0.0321500003114343 0.0600499968752265 0.00564999974519014 16 -0.0127347199122112 -0.328875961220668 -0.0313624533657761 0.330613330707008 -11.7962419884632 -0.151806949253192 -1.00973270629768 -11.3082885374512 6.84061610143155 1.5233382158439 19.5325258822192 -7.72901570120596 2.37684028383119 -9.25235391704986 -20.5422585885169 -11.156481588198 25.1407542120686 15.962100326022 -62.6924356983163
0.0349500003531575 0.0600499968752265 0.00564999974519014 16 -0.0338284607728323 -0.349364142133854 0.00349057130826017 0.35101545928241 -7.31460184154847 -0.999091085552856 -1.05162283425318 -7.80804553122392 7.75273099602854 2.14557604825849 11.4888240442726 -4.99381609743919 3.04768385924149 -7.13939214569768 -12.5404468785257 -6.80895444567107 15.9560517912922 40.3673984978157 -40.3772880422976
-0.0350500006899238 0.0572499968335032 0.00564999974519014 16 0.179708273410797 -0.0817814437062286 -0.304692672391344 0.363071470479221 -1.80240128874039 23.4065401353978 0.782382157281727 -5.98002738977344 -2.56548625380496 -4.98793349603424 3.13358847783558 -21.5757896345616 2.69190228952283 -16.5878561385273 -2.35120632055385 -29.3865675251712 33.8268457492823 -8.97148596473408 22.7675928285177
-0.0322500006482005 0.0572499968335032 0.00564999974519014 16 0.17409251888593 -0.0982904555709198 -0.296765306438319 0.357825189015274 -2.37359953611693 22.3213398459543 0.84049390884355 -9.13463870908725 -2.22365699209201 -4.5901473157494 5.75046885852578 -20.524642257308 1.92971544165416 -15.9344949415586 -4.90997494968223 -31.4559785550416 35.6018899765771 -88.1536252874258 101.259683676044
-0.0294500006064773 0.0572499968335032 0.00564999974519014 16 0.16468621691068 -0.131344939930714 -0.274228615715789 0.345795281869421 -5.19342879225194 19.4643326366816 0.940066109639278 -14.3485053934211 -1.08552495887692 -3.63161626749576 7.08038408682822 -18.8259154086333 0.739009199913578 -15.1942991411375 -6.14031797718894 -33.8128380301027 37.5749683552937 -186.25160257797 205.256944033244
-0.026650000564754 0.0572499968335032 0.00564999974519014 16 0.140836269060771 -0.174284772426654 -0.258837419125872 0.342354854095149 -8.69766679005182 14.5974883970188 0.985373896720285 -18.4113870089831 1.1909418552675 -2.10662102319064 7.72843949087331 -17.4100862992872 -0.125141292399898 -15.3034652760966 -6.74306559415302 -33.0088754060019 37.0033895559948 -214.692573307777 215.04913772291
-0.0238500005230308 0.0572499968335032 0.00564999974519014 16 0.108707715670268 -0.227540705795206 -0.230165932084686 0.341421288926804 -13.5810226307018 7.3131719371795 0.90402337661495 -21.1435730503433 4.17250662829942 -0.0841060623808071 12.9270564328931 -14.8693318459071 0.383215756325946 -14.7852257835263 -12.0230330562781 -28.4567449875228 34.2482490154914 -30.7552889141579 81.4172244040731
-0.0210500004813075 0.0572499968335032 0.00564999974519014 16 0.0544211002190909 -0.286117843840766 -0.178512995390532 0.341602058302413 -19.851924183191 -2.25645247145387 0.717207627948314 -21.2409386743277 6.9542372000513 1.93724807284653 24.0297877390438 -8.6951125550466 2.53257607448282 -10.6323606278931 -23.3125801110954 -18.9844862028738 31.8894057697054 19.460506280405 -219.038288708673
-0.0182500004395843 0.0572499968335032 0.00564999974519014 16 -0.0153026294708252 -0.343571354579957 -0.0791278060494612 0.352897514650966 -26.2274559108677 -13.0239673915576 0.815755373927216 -10.8173821004582 8.36973740427413 3.09902339787549 37.5096782833349 1.87906213418063 5.24408723406497 -1.21996126369486 -36.6939229094077 2.20658529109945 36.7804472867496 125.5476480655 -490.471563298279
-0.015450000397861 0.0572499968335032 0.00564999974519014 16 -0.106405963500341 -0.348976633440082 0.0529897328217824 0.368666287501493 -29.845895031546 -22.843889894664 1.43492943464751 11.7250591426068 7.77550081470791 2.66981189084391 43.6103408519992 14.0554787495369 6.51766622571367 11.385666858693 -42.1754114173517 34.5689490372708 55.7082666718455 23.4832705254686 -208.171530087174
-0.0126500003561378 0.0572499968335032 0.00564999974519014 16 -0.193997348546982 -0.284353552752291 0.181412791916324 0.389104761313691 -26.4857783869609 -28.9728805244698 2.18881969404701 42.8688430359306 4.99840648885995 0.740585845840838 41.0896941844487 23.3465270453639 5.29452767749977 22.6059411995231 -38.9008744904017 71.8417235604004 84.7675637125621 -445.356831954928 888.653656386522
-0.0098500003144145 0.0572499968335032 0.00564999974519014 16 -0.260513798395793 -0.116530834236182 0.28961402795588 0.406599507711474 -13.6508685941723 -29.4641842903022 2.38593680155797 67.1886050408796 0.464742900360899 -1.58788873815856 28.1991122174443 27.1477937562832 2.91726328650161 28.7356824944417 -25.8131754158863 96.6527893311819 104.085643385486 -1923.2861814137 1910.67227285274
-0.00705000027269125 0.0572499968335032 0.00564999974519014 16 -0.269487252235413 0.0865833674289752 0.3385333953045 0.441276464780444 4.23551834130152 -24.1613550620974 1.59341392526903 71.0909908702118 -4.3785430144255 -2.95139508312824 11.633477454052 25.8788530006796 1.88725935411967 28.8302480838078 -10.0400635287829 95.2523459323093 100.02497431064 -1773.4363893011 1756.68112276213
-0.004250000230968 0.0572499968335032 0.00564999974519014 16 -0.230686927636464 0.280595424130249 0.352671833722852 0.506288132318569 21.085374026928 -15.3577565514051 0.211741984992796 52.5282847149447 -8.28629205674433 -2.58677510639105 -8.24206266805509 21.7857449178498 3.27343177470256 24.3725200242408 8.45380465304788 67.8860412663497 72.6223184996214 -577.819755969372 731.993976347866
-0.00145000018924474 0.0572499968335032 0.00564999974519014 16 -0.141744693120321 0.383177202753723 0.288624422096376 0.500220335220799 30.1842853186599 -5.81434868954855 -1.0043064780956 21.8846269867326 -10.6139412895589 -0.798681370837312 -24.6930232372514 16.179312608981 5.51834838097355 16.9779939798183 23.6887167591558 27.6989756762812 40.2074723750384 19.8475226221864 -97.0106513370892
0.0013499998524785 0.0572499968335032 0.00564999974519014 16 -0.0503369057178498 0.406742561686357 0.205192499467084 0.45834187829826 30.3571697235813 2.81161418104651 -1.5506014795086 -4.45597399289341 -11.5158443667229 1.47184102482496 -33.9548072500694 9.29294118487391 6.21529095383151 7.82110016004894 32.4042057705608 -7.26758817393993 34.1177372813666 151.987015483777 -286.283749669052
0.00414999989420176 0.0572499968335032 0.00564999974519014 16 0.0394712742169698 0.361794598635364 0.0834108075375358 0.373377390724317 23.6606259749003 10.2074333675162 -1.39513632775923 -21.1821795138106 -10.8654881174434 3.38840498701895 -31.7689412738312 1.59536626803121 4.61981825580462 -1.79303871898774 30.373804946072 -31.3896128813269 43.7160246544603 43.7099224732143 -31.4851040404354
0.006949999935925 0.0572499968335032 0.00564999974519014 16 0.0917395687103271 0.291808049764174 0.0115721486438027 0.306107825771511 12.6389811859112 16.0311197513246 -1.03433235293274 -28.4983661209194 -8.21027418681196 4.57796695475547 -19.7144516560866 -5.2160404638656 2.14878879034436 -9.79400741862107 18.6801193031539 -44.529485872244 49.2721478174276 -247.899173886953 366.095140688671
0.00974999997764826 0.0572499968335032 0.00564999974519014 16 0.116686942577362 0.206352667898464 -0.0384558596970358 0.24015852943817 3.87527680843066 19.2521321542007 -0.938767446851372 -32.3646322462485 -4.14030905162639 4.84746179099973 -9.70071016896362 -10.0807092341216 0.362129107915947 -14.9281710251213 8.76194272211224 -51.6167644004492 54.4418248921941 -654.266199926898 646.7064995102
0.0125500000193715 0.0572499968335032 0.00564999974519014 16 0.116002689599991 0.11361310286719 -0.0497718360290552 0.169828727838507 -1.83144793260163 19.5509956394602 -1.34385330817463 -32.5750673210992 -0.49368889632792 4.09110937185177 -5.81647767628875 -14.4481320549403 -0.178372388599611 -18.5392414267921 4.47262436811413 -52.1260629605594 55.5052635448868 -686.160181136113 689.486300556973
0.0153500000610948 0.0572499968335032 0.00564999974519014 16 0.105402355591456 0.0244348932888048 -0.0773927734136426 0.133027673628153 -1.72064007016867 18.0282873002115 -1.95459493494707 -29.8678056792983 1.12192033882696 2.44896712280723 -11.9673775448239 -21.1493740156033 -0.231288276754618 -23.5983411384105 10.0127826098769 -47.8960929795098 54.3247019575745 -576.316634920115 565.076183676131
0.018150000102818 0.0572499968335032 0.00564999974519014 16 0.104168968995412 -0.0560690875990743 -0.127008959263852 0.173568984611441 -1.08279167938424 16.3360480150129 -2.26772825978889 -24.9666400619192 0.885894842403384 0.467125740954797 -14.3677183411113 -30.5663666554259 -0.42035139841707 -31.0334923963807 12.0999900813224 -41.3026880769321 53.060337849138 -400.116322406625 388.676012883047
0.0209500001445413 0.0572499968335032 0.00564999974519014 16 0.0974825298786164 -0.118695044150421 -0.167591110597223 0.227328259326939 -1.67303551451998 14.7855970076643 -2.02082334002051 -22.1123105353709 0.504491023354421 -1.03450510836298 -9.45704467927908 -38.4098876655827 -0.729768115979303 -37.3753825572197 7.43622133925856 -36.8979075430352 53.0440589525287 -274.22245776795 268.106205980054
0.0237500001862645 0.0572499968335032 0.00564999974519014 16 0.094085077047348 -0.181270176908001 -0.183191979901555 0.2743541147122 -5.30286620318876 12.405513733969 -1.40335762201285 -22.0281085804599 1.46158965604163 -1.47951832981718 3.2379600427891 -39.1226995433028 -0.839354980062586 -37.6431812134856 -4.64131766480194 -34.4336223144289 51.2271926541915 -215.103622671448 215.404848557522
0.0265500002279878 0.0572499968335032 0.00564999974519014 16 0.065923824707667 -0.240381662871999 -0.140190569205467 0.285976730178082 -10.4752339103535 8.45748628230756 -1.0043027616751 -22.6853790520359 3.84375921597435 -0.754118689787466 15.0507166463945 -30.9333522825157 -0.281548409668816 -30.1792335927282 -16.0550194080696 -31.1428653343434 46.2431384063733 -154.207362820986 145.252143612233
0.029350000269711 0.0572499968335032 0.00564999974519014 16 0.0304968051115673 -0.304416524117502 -0.0793483798809272 0.316062716351554 -12.718825875699 3.62742655487101 -1.11766230157378 -19.9369482384625 6.74397215793581 0.686027408822359 18.9458866762413 -17.7808075983506 0.974096639173724 -18.466835007173 -20.0635489778151 -23.5643747933335 36.0395581572253 -15.6147060115657 14.0975476213014
0.0321500003114343 0.0572499968335032 0.00564999974519014 16 -0.0123810466130574 -0.348299791239357 -0.0118476845395829 0.348721095607312 -10.0001780215683 -0.372942294985692 -1.56685275662234 -12.364367897949 8.96056407975868 2.08734125733572 14.1226739375802 -6.13343465555119 2.5489033544638 -8.2207759128869 -15.6895266942026 -11.9914256029633 21.390107351049 51.1397902847668 -61.9375853791112
0.0349500003531575 0.0572499968335032 0.00564999974519014 16 -0.0314155062039694 -0.371318082547126 0.016073620536093 0.372991171120261 -6.05581309787901 -2.30617446433719 -1.85650308762284 -8.4511369224539 9.9269689391341 2.78991554261971 7.97380014998881 -0.463641280739895 3.40896595101767 -3.25355682335961 -9.83030323761165 -6.14496245811671 12.0408080027003 41.4121849638358 -50.312121621227
-0.0350500006899238 0.05444999679178 0.00564999974519014 16 0.0856856167316438 -0.0681457058821494 -0.219871937770707 0.245620705894076 -0.825423214643335 34.4230127156451 1.52009231330719 -6.33278011535758 -4.26234100614929 -3.69449881029301 2.59100953159938 -30.954267674164 -0.254299143415253 -27.259768863871 -1.07091721829219 -40.7557928310027 49.0436184583042 -66.1593767081237 104.506340966407
-0.0322500006482005 0.05444999679178 0.00564999974519014 16 0.0836137096087137 -0.0852055580143626 -0.214711773414941 0.245667224501068 -0.390432266584175 33.1993863775235 1.50282882752914 -9.8660025940988 -3.75522214098931 -3.21891526935317 4.68550967466694 -30.7595962188133 -0.458103493511733 -27.5406809494601 -3.18268084713779 -43.0653889716223 51.2176365309043 -187.419312880728 224.856477823538
-0.0294500006064773 0.05444999679178 0.00564999974519014 16 0.0848330990473429 -0.121402640736002 -0.198496266965133 0.247661106899619 -0.970690688880297 29.8504882138918 1.46191635962027 -16.2751589466236 -2.23533673599042 -2.18184960893295 6.10627825553057 -30.4192580523315 -0.678977008362378 -28.2374084433986 -4.6443618959103 -46.1256471605154 54.281642007182 -386.011071752854 414.870965417543
-0.026650000564754 0.05444999679178 0.00564999974519014 16 0.0803138605753582 -0.174643846401401 -0.185533714011932 0.267158283273149 -1.89259945891354 23.6895270190446 1.31204906847292 -21.4420022698837 0.445465263968149 -0.714627015650457 6.44331792280507 -29.5758597623117 -0.680769894474916 -28.8612327466612 -5.13126885433216 -45.1315292889283 53.8159419844137 -475.52064380739 478.50331251473
-0.0238500005230308 0.05444999679178 0.00564999974519014 16 0.0761003204186756 -0.240855863367518 -0.163327376121112 0.300796671319589 -3.35100765358043 13.9387611706243 1.06215400014233 -24.1028278275068 3.45377052900029 1.10647133351814 7.90684015533976 -25.8112763700703 0.0723950450093508 -26.9177477035885 -6.84468615519742 -38.041588998131 47.1017766490811 -352.28624507358 344.558544156411
-0.0210500004813075 0.05444999679178 0.00564999974519014 16 0.0624883564313252 -0.308906876071317 -0.137545766894085 0.343870747177061 -7.19016536644989 0.616611785395157 0.764265396730124 -22.9519806132642 5.34233667334838 2.84666315109072 13.2982514997122 -16.233743144046 1.8019880515505 -19.0804062951367 -12.5339861029821 -23.5685923986593 32.8122120508719 -4.99995228691807 8.45901734757694
-0.0182500004395843 0.05444999679178 0.00564999974519014 16 0.0354863464832307 -0.370157016594506 -0.0830378083046526 0.38101282829967 -12.4312298500898 -15.07385817202 0.686262307130521 -10.0822600234381 4.90275633104189 3.74787834546639 21.6077020360019 -0.174405346608675 4.02425164303124 -3.92228369207507 -20.9214397288713 4.99159814858192 21.8633712351696 117.102967090263 -257.397221854571
-0.015450000397861 0.05444999679178 0.00564999974519014 16 -0.00726263642311098 -0.367604496335456 -0.0106608918799126 0.367830757590408 -18.3900304591438 -30.5060263020936 0.909768403921018 14.1762597674374 2.31067021875731 3.05747477984168 28.2429009799076 18.9185941574597 5.44961718634158 15.861119377618 -27.3331325759866 44.6822860695311 54.7282553415228 -112.614932677142 218.804076262304
-0.0126500003561378 0.05444999679178 0.00564999974519014 16 -0.0698339700698853 -0.29502389852858 0.0803281531504035 0.313637523691407 -20.4215979915383 -41.8970806401125 1.09755545993031 46.6430972146463 -1.13769025894113 0.771911092190432 30.7498411201024 35.3348387980706 5.04908987658653 34.5629277058802 -29.6522856601721 88.5401778547588 99.5651400392058 -1633.29935436343 1807.56326433937
-0.0098500003144145 0.05444999679178 0.00564999974519014 16 -0.127595691680908 -0.107558323068855 0.166827667596129 0.235968057313862 -15.5072644939598 -45.6135613699152 0.821879458385236 70.8450126143945 -4.03468842267264 -2.00414696056123 25.4779388941729 44.5945984747691 3.4878869909489 46.5987454353303 -24.6560594357877 116.45857398431 127.83569062475 -3399.41350951771 3294.33452217609
-0.00705000027269125 0.05444999679178 0.00564999974519014 16 -0.164172676404317 0.105865598738649 0.227291358008127 0.299702442598034 -4.75882352112638 -40.0656528359045 -0.127946769774755 73.8139734659947 -5.57079267718401 -3.77959563347335 14.8186074793229 45.3995825283731 2.55959698820214 49.1791781618465 -14.9465542490976 113.879626301899 124.942227990604 -3142.48712808419 3130.96385688553
-0.004250000230968 0.05444999679178 0.00564999974519014 16 -0.159199911753337 0.314613874343146 0.252658922733778 0.433777630899137 8.71949696722287 -27.5090324244638 -1.28726107589371 54.3778357360818 -6.23557725178518 -3.5036713320032 -1.3968736253772 39.4623715432541 3.27542170602773 42.9660428752573 0.109612549483489 81.8868681605456 92.4746020938292 -1592.58987951298 1586.11147287526
-0.00145000018924474 0.05444999679178 0.00564999974519014 16 -0.115010894139608 0.420472864972156 0.220437064047437 0.488484836156189 17.6931668452163 -12.1954447531716 -2.06149393902551 23.1880976864753 -7.0609497398504 -1.41735694793306 -15.6039370998688 29.1345286720624 4.7491131494954 30.5518856199955 13.5424431608433 35.383542439647 48.6704279545625 -112.177065003494 217.478809378868
0.0013499998524785 0.05444999679178 0.00564999974519014 16 -0.0568816916147867 0.450984561757941 0.165222190170122 0.483653774832342 19.671970833073 2.35490974018515 -2.14602701006434 -3.61727272452238 -8.30121863080018 1.36328911374101 -23.4737112411241 16.4507179498417 5.29673609015439 15.0874288361007 21.3276842310598 -5.97218246470753 26.7986489759457 101.528464997268 -167.357409494345
0.00414999989420176 0.05444999679178 0.00564999974519014 16 2.98798084259477E-05 0.403287810652206 0.0856502062671158 0.41228269057414 14.6422715538401 14.6626438652838 -1.72062497683002 -22.3490378791558 -8.62341778310553 3.72732037082829 -21.3303732903512 3.22862887425907 4.40212412587363 -0.49869149656922 19.6097483135212 -37.0116817444397 41.8886083282805 -109.704401380062 179.189592424255
0.006949999935925 0.05444999679178 0.00564999974519014 16 0.0291668279965718 0.325910417556297 0.0393204520751412 0.329566991791494 6.54208168454795 23.9542114038989 -1.37139131888093 -32.2615453180981 -6.34859415121299 5.11063348652139 -11.6590828839357 -8.45390114947502 3.13585039761335 -13.5645346359964 10.2876915650548 -56.215756721997 58.7370794426791 -738.818168319789 759.089228458356
0.00974999997764826 0.05444999679178 0.00564999974519014 16 0.0389156166712443 0.222155546260377 0.0118245111076006 0.22584802637633 1.56234922663845 29.1430260841783 -1.43670705445406 -37.0680448634234 -1.95196747204489 5.36648907892519 -3.53320241563821 -17.8121089046953 2.68054651163668 -23.1785979836205 2.09649536118415 -66.2110709476017 70.1822528372673 -1168.01898831482 1166.69326471959
0.0125500000193715 0.05444999679178 0.00564999974519014 16 0.0380794966220857 0.115439303947302 0.0117579464880206 0.122125059936297 -0.663473926177363 29.9891161742867 -1.87897425715521 -35.3459797022238 1.87573737095617 4.51697902441343 1.03942008968938 -26.4680916031801 3.2650538051758 -30.9850706275935 -2.91839434684458 -65.3350958765105 72.3689600626779 -1171.24015950536 1184.21715229795
0.0153500000610948 0.05444999679178 0.00564999974519014 16 0.0334295268853506 0.0186395302818467 0.0139193152285103 0.0407272966612922 0.544121646389202 28.0790887905533 -2.21645102327389 -29.8762615567105 3.03949639433816 2.79245965873716 -1.43660778467176 -37.1535171686475 3.93135013539524 -39.9459768273846 -0.779843238602135 -57.9553503472638 70.3925553879445 -910.57591626731 955.206041111835
0.018150000102818 0.05444999679178 0.00564999974519014 16 0.0401034530003865 -0.0593641174949395 0.00353264961197662 0.0717277143215103 0.701018122651234 25.7227565571586 -2.04359470881487 -23.6908897724247 2.00822747867947 0.772563264416489 -3.21587727275527 -49.4191353573331 3.78816331272836 -50.1916986217496 1.1722825639404 -49.4136463295833 70.4435185132841 -609.675030871898 652.673317645153
0.0209500001445413 0.05444999679178 0.00564999974519014 16 0.0377525170644124 -0.119966179661763 -0.000882185828716797 0.125769292989877 0.255673836122557 23.5606884118292 -1.39065371261912 -22.0525331821981 1.05410365506108 -0.765640785214279 -4.44628762172131 -57.7382124730901 2.60766330828788 -56.9725716878759 3.0556339091022 -45.6132215940272 73.0464017423339 -456.313042289133 472.867851704948
0.0237500001862645 0.05444999679178 0.00564999974519014 16 0.0434220282236735 -0.186436437827651 -0.018974934319073 0.192364409435151 -1.58672517846413 20.2959213101573 -0.70595263915048 -23.6506327881844 1.65975187692553 -1.23487195555104 -2.97276112105396 -55.8254364890848 0.957106675386956 -54.5905645335337 2.26680848190348 -43.9465540983417 70.1182413777044 -403.420992711301 406.411811766136