TITLE="DynamicStudio Exported Data"
VARIABLES= "X (m)[m]" "Y (m)[m]" "Z (m)[m]" "Status[-]" "U[m/s]" "V[m/s]" "W[m/s]" "Length[m/s]" "dU/dX[1/s]" "dU/dY[1/s]" "dU/dZ[1/s]" "dV/dX[1/s]" "dV/dY[1/s]" "dV/dZ[1/s]" "dW/dX[1/s]" "dW/dY[1/s]" "dW/dZ[1/s]" "Vorticity X[1/s]" "Vorticity Y[1/s]" "Vorticity Z[1/s]" "Vorticity Magnitude[1/s]" "Lambda-2[1/s²]" "Q-Criterion[1/s²]"
ZONE T="DynamicStudio Data" I=26 J=26 F=POINT
-0.0350500006899238 0.0600499968752265 0.00564999974519014 16 -0.0457853184143702 0.372819771349508 0.10424852571683 0.389818717361721 12.9388486546307 -1.72934120397989 2.71457685104003 -11.1175842744586 -9.62847342284163 -3.51004110664458 -19.2336399125772 12.1456247029298 -7.27880133107331 15.6556658095744 21.9482167636172 -9.38824307047872 28.5475602984598 60.7467232155995 -73.0601849702379
-0.0322500006482005 0.0600499968752265 0.00564999974519014 16 -0.0081208644310633 0.342454379315798 0.0511715857001643 0.346351673209104 21.0982345093837 0.834723437213813 2.09847434830005 -17.9786651644022 -9.6310922338112 -3.08097402986188 -33.9324737410704 10.6122589024698 -6.10648578463464 13.6932329323317 36.0309480893704 -18.813388601616 42.8914611436054 74.0047494373685 -154.313250847391
-0.0294500006064773 0.0600499968752265 0.00564999974519014 16 0.0788881055514017 0.273177210260765 -0.0879305760531376 0.29762544852277 27.2232599560233 5.80251013699074 1.06241498037649 -27.01696380876 -9.41300662521017 -2.32819383573628 -44.9164817459653 6.70223436713684 -4.1312051723954 9.03042820287312 45.9788967263417 -32.8194739457507 57.2077394045129 22.3427599457262 -109.740286824804
-0.026650000564754 0.0600499968752265 0.00564999974519014 16 0.152721668084463 0.19359134357151 -0.206266469918191 0.321476862030279 22.3878219304814 11.1009189417064 0.0504730587015762 -28.6279939356785 -8.44849858380448 -1.46113135894517 -36.09480237451 0.781249707879328 -1.64175587802079 2.2423810668245 36.1452754332116 -39.7289128773849 53.7577503938773 -65.8171614608208 108.731915755871
-0.0238500005230308 0.0600499968752265 0.00564999974519014 16 0.212045071919759 0.117154724055824 -0.29822059510819 0.384218512360785 13.8054798118308 15.1644966064551 -0.530126564701848 -25.8969249200524 -6.63831265537357 -0.727918735440137 -18.6220279076526 -5.66639833745601 0.938671576959262 -4.93847960201587 18.0919013429507 -41.0614215265075 45.1413979929745 -194.523579638408 293.799645621692
-0.0210500004813075 0.0600499968752265 0.00564999974519014 16 0.23547709663709 0.0537449741818758 -0.317899929947841 0.399247230110975 6.12114116337441 17.2299251112944 -0.761121618380917 -23.7131534931973 -4.30664233286067 -0.270535789586793 -1.72354860319116 -10.2788130003184 3.10073787528942 -10.0082772107316 0.962426984810247 -40.9430786044917 42.1595489069976 -386.953498595384 383.747961535981
-0.0182500004395843 0.0600499968752265 0.00564999974519014 16 0.247897744576136 -0.0104148899216671 -0.310020685913429 0.397082595176682 0.426979727160112 17.2651745408049 -0.848516194248817 -22.8983434507419 -1.77212340188583 -0.0887831219947404 8.53491263199441 -11.3469390158943 4.30449366076336 -11.2581558938996 -9.38342882624323 -40.1635179915468 42.7539821317947 -398.006927917824 395.031668098883
-0.015450000397861 0.0600499968752265 0.00564999974519014 16 0.236184426148732 -0.0695426172782512 -0.267163482860972 0.363311966975381 -5.7976302255594 15.6929215177056 -0.959768108322174 -22.9728222799461 0.636569760083318 -0.227664242365455 18.3805411449715 -9.33439549731314 4.18123601198365 -9.10673125494768 -19.3403092532937 -38.6657437976517 44.1816688185102 -363.991307307983 350.756438245195
-0.0126500003561378 0.0600499968752265 0.00564999974519014 16 0.210906410217285 -0.135439058849564 -0.202805133013753 0.322420803468888 -12.4266398371973 13.2820478538745 -1.12002604997309 -22.0406786612525 2.6185481417413 -0.562082037383371 26.5307728674234 -6.60673806688966 2.81980390435171 -6.04465602950629 -27.6507989173965 -35.322726515127 45.2636670603233 -155.875506626164 258.550326744097
-0.0098500003144145 0.0600499968752265 0.00564999974519014 16 0.161638267040253 -0.190309698013589 -0.118301107562535 0.276296693031824 -18.6790733244096 10.7059728000665 -1.22942638835883 -22.2682398728197 3.86838741622545 -0.872184676233083 29.8502901266215 -5.16637004902969 0.566088068848568 -4.29418537279661 -31.0797165149803 -32.9742126728861 45.5157940506831 -34.5346180328348 189.9538311981
-0.00705000027269125 0.0600499968752265 0.00564999974519014 16 0.101425784428914 -0.259241102252078 -0.0399324612911247 0.281225426141841 -23.0619483871822 7.62891407982187 -1.29360727339102 -22.6066512679771 4.44069693992655 -0.912077881984021 24.7170631975078 -4.90119126606634 -1.77662078778705 -3.98911338408232 -26.0106704708988 -30.235565347799 40.0831313127826 -2.69041298321446 130.639883520003
-0.004250000230968 0.0600499968752265 0.00564999974519014 16 0.0257989835739136 -0.315848427150098 0.0158677713790288 0.31729734107801 -28.2912951733814 2.82582592679702 -1.53923374154934 -18.6021355770683 5.20725773631071 -0.34704296440229 20.1659637540214 -3.73837643518971 -2.84371193867171 -3.39133347078742 -21.7051974955707 -21.4279615038653 30.6883410311302 13.4250739214824 0.633438799105946
-0.00145000018924474 0.0600499968752265 0.00564999974519014 16 -0.069172302087148 -0.359408759092136 0.0773581158823799 0.374090552648762 -32.6859954348275 -4.07068958678571 -2.43508359188829 -2.82653736907113 6.93550813732236 1.07326539009713 23.4572734847517 -0.0361146702978257 -1.37869060832811 -1.10938006039495 -25.89235707664 1.24415221771458 25.9459591043283 49.0652984965664 -145.538806153863
0.0013499998524785 0.0600499968752265 0.00564999974519014 16 -0.174332993030548 -0.323718448134411 0.162212597797625 0.401868825620742 -35.5494949853251 -11.429271889574 -4.08976742491472 26.1531901931403 9.34991603523891 3.27966500676531 34.8006498214029 5.80563600819075 2.3059945331216 2.52597100142545 -38.8904172463177 37.5824620827142 54.1413570137596 -2.78372336110294 29.3970652075754
0.00414999989420176 0.0600499968752265 0.00564999974519014 16 -0.284978234767914 -0.203464737309647 0.292703257028091 0.456383271269634 -28.5044354352261 -16.4582556706406 -5.5909597087875 59.4456371063636 10.4176388980213 5.79985234868736 42.3875254831208 11.667585364344 6.54357347451525 5.8677330156566 -47.9784851919083 75.9038927770042 89.9875895374254 -262.648793045204 732.386971337129
0.006949999935925 0.0600499968752265 0.00564999974519014 16 -0.341573567787806 0.0131121938334157 0.416564266784117 0.538860111902713 -10.6469859985226 -17.4011082885119 -5.39566544788061 77.0343764982542 7.79862417403375 7.69363080222198 33.0205550155626 14.7607707960741 9.31135809120399 7.06713999385208 -38.4162204634432 94.4354847867661 102.194966849156 -1203.27133579136 1295.53351498041
0.00974999997764826 0.0600499968752265 0.00564999974519014 16 -0.339445845286051 0.221079529666652 0.482136652726525 0.629726442371549 13.2530976221016 -14.8375263444099 -2.79957456333931 66.8948435522895 1.57189497307143 8.20966042101697 7.78289193617798 13.863575079555 9.77034289484162 5.65391465853804 -10.5824664995173 81.7323698966994 82.6083266814571 -566.58863128479 1066.20528477973
0.0125500000193715 0.0600499968752265 0.00564999974519014 16 -0.252796396017074 0.372976856662276 0.453594782561219 0.639348090019555 33.6724153142058 -10.4404018611791 0.931813624949642 33.1037886388109 -5.34795406374282 7.26537355676416 -25.3742380853064 9.69023407458124 8.85867455520899 2.42486051781709 26.306051710256 43.54419049999 50.9311774006153 113.547368598326 369.696400736844
0.0153500000610948 0.0600499968752265 0.00564999974519014 16 -0.134928783973058 0.391639751539721 0.327620406503556 0.528131236046589 40.3452637945174 -5.55603245775138 3.36599401726194 -6.02576751969854 -9.50312529366447 5.156385925592 -49.3765738536614 4.08396501375373 7.71472060797816 -1.07242091183828 52.7425678709234 -0.469735061947158 52.7555608752246 94.7987276078347 -33.8042228141196
0.018150000102818 0.0600499968752265 0.00564999974519014 16 -0.0158532859881719 0.330526377772912 0.164996477808454 0.369760531654611 35.5656077447155 -0.515112273169868 3.15375930054632 -29.7757190798616 -9.70790610488817 2.76759767821649 -57.0628658155966 -1.64829522761838 6.65556830859654 -4.41589290583487 60.2166251161429 -29.2606068066918 67.0948966854388 94.4768492834868 -3.98335749556099
0.0209500001445413 0.0600499968752265 0.00564999974519014 16 0.0706635002295177 0.223877337960294 -0.00430561354927098 0.234804026849861 23.3836183062697 4.34763042489197 1.05268909904706 -36.1514414734822 -7.39300913937616 0.776912674694619 -48.213402669303 -7.20900982983137 5.07062330618619 -7.98592250452598 49.2660917683501 -40.4990718983742 64.2736149676169 10.39739401869 121.734653052378
0.0237500001862645 0.0600499968752265 0.00564999974519014 16 0.118482782046 0.13029393283107 -0.118863965480899 0.212469576325157 13.4425940935692 8.21640150470551 -0.985618299412839 -28.7747895855096 -4.46320460008641 -0.354174601544124 -32.9610029263854 -12.3816367934213 2.56482019281464 -12.0274621918772 31.9753846269726 -36.9911910902151 50.3530861724748 -13.0884815956017 162.586467215465
0.0265500002279878 0.0600499968752265 0.00564999974519014 16 0.149035469889641 0.0672272294784489 -0.203634942129126 0.261147968256516 8.30753538894557 10.6263029032621 -1.50826105167459 -21.8415275063165 -1.83840443239499 -0.62860753546961 -20.8736281148199 -16.743109733126 -0.701128513568025 -16.1145021976563 19.3653670631453 -32.4678304095787 41.0956765861542 -170.34381686166 170.278659860932
0.029350000269711 0.0600499968752265 0.00564999974519014 16 0.168801460663478 0.0122830399835948 -0.249642850009647 0.301606297603848 5.93770794276941 11.6560332868945 -0.509515716419459 -16.9756337775593 0.303176997327612 -0.560757199240166 -13.9794853360224 -19.571846498528 -4.23520894136751 -19.0110892992878 13.469969619603 -28.6316670644538 36.9138721456887 -188.576371775959 155.139455829483
0.0321500003114343 0.0600499968752265 0.00564999974519014 16 0.186175158818563 -0.0238357730869514 -0.292069593334648 0.347180041463268 3.80002502898336 11.9249986156407 0.92938730202228 -11.3710649259737 1.84548556357163 -0.440103558329057 -8.65053893438126 -20.8549929401864 -6.95972714958287 -20.4148893818573 9.57992623640354 -23.2960635416144 32.4229744425668 -122.855867720198 102.182955927893
0.0349500003531575 0.0600499968752265 0.00564999974519014 16 0.192838466564814 -0.0491176314791665 -0.303136687350149 0.362616970268649 2.14924375482596 11.958310413288 1.7039897326712 -8.99282989213003 2.46800927428133 -0.459285848851908 -3.89723312318711 -21.1492255277162 -8.03698112077697 -20.6899396788643 5.60122285585831 -20.951140305418 29.9732811265858 -87.4282088456093 72.6619346674814
-0.0350500006899238 0.0572499968335032 0.00564999974519014 16 -0.0377337622642517 0.399978022524641 0.0658309740825401 0.407111744446157 10.8937036219326 -0.29702754987782 2.83393497302941 -11.1125925881269 -13.3099626071934 -3.35029989661548 -18.2994754511997 12.0554509611575 -9.464321806738 15.405750857773 21.1334104242291 -10.8155650382491 28.300788730127 34.9901672234545 -33.1783818280141
-0.0322500006482005 0.0572499968335032 0.00564999974519014 16 -0.00727511684099835 0.369127149650352 0.0159665258275345 0.369543921450542 17.5178254251151 3.11040833155888 2.28450687834574 -17.8264888974768 -13.4629298325729 -2.85630111088723 -31.5948161678301 9.91752716761142 -8.30456481207451 12.7738282784986 33.8793230461758 -20.9368972290356 41.8250270117655 96.1171899399855 -113.561719461315
-0.0294500006064773 0.0572499968335032 0.00564999974519014 16 0.0624019046624502 0.30082308186742 -0.110442621662902 0.326475262415836 22.3355738074436 9.92257466448152 1.3288134510992 -27.3348142945306 -13.3699508165948 -1.97120451393256 -40.4670369554056 4.4337663155891 -6.08715476622456 6.40497082952166 41.7958504065048 -37.2573889590121 56.3562755562596 5.02157648315104 -19.4559190021615
-0.026650000564754 0.0572499968335032 0.00564999974519014 16 0.121754557291667 0.217797844260167 -0.211064892384845 0.326815639134806 18.0094179275506 17.4225285477536 0.329765388706584 -29.7780985916516 -12.2234983553195 -1.01789214400306 -30.4044199557388 -3.73239934065597 -3.03834221068182 -2.71450719665291 30.7341853444454 -47.2006271394052 56.3902287675848 -232.404951859384 287.319224127241
-0.0238500005230308 0.0572499968335032 0.00564999974519014 16 0.167505671183268 0.136799227004133 -0.28106281509555 0.354638526413757 10.8933643721678 23.3585221020979 -0.346527287805998 -27.7393065275821 -9.8344074012937 -0.275469066625582 -13.3853816800575 -12.5102119719105 0.10741588888029 -12.2347429052849 13.0388543922515 -51.09782862968 54.1358360837708 -531.550621555209 532.848593794042
-0.0210500004813075 0.0572499968335032 0.00564999974519014 16 0.186370763381322 0.0657527413922071 -0.286939715294478 0.348413381857246 5.02482964487202 26.6784728919836 -0.680156724947324 -25.840436417326 -6.64196631047294 0.152398611599069 1.07898967490468 -19.0119249233139 2.52836084204988 -19.164323534913 -1.75914639985201 -52.5189093093096 55.9339049919315 -651.14085746676 655.551201283677
-0.0182500004395843 0.0572499968335032 0.00564999974519014 16 0.197853355407715 -0.0046503440857244 -0.275911438089485 0.339550729074191 0.921086344210771 27.2689279835984 -0.823231304126209 -25.0176094235228 -3.24025705722154 0.283836612115413 8.09036939513618 -21.0138779593595 3.69423785406875 -21.297714571475 -8.91360069926239 -52.2865374071213 57.157037339423 -683.617342174537 683.276018202058
-0.015450000397861 0.0572499968335032 0.00564999974519014 16 0.191932688156764 -0.0721208070622136 -0.242050822476546 0.317219432342911 -3.94990001906392 25.4511755010854 -0.985540647807319 -24.7765333337117 -0.120177751331397 0.0814406072559849 15.6988974059125 -18.5585388229693 3.60342289139413 -18.6399794302253 -16.6844380537198 -50.2277088347971 56.1127618382912 -639.630769140248 633.383697070278
-0.0126500003561378 0.0572499968335032 0.00564999974519014 16 0.173386489152908 -0.142344339185511 -0.185905186376379 0.291351203602401 -9.88557639746643 21.8660064094695 -1.22106086771952 -23.4683691175003 2.45056429812931 -0.331201278121316 23.7265642007044 -13.9819055606657 2.61919213332331 -13.6507042825444 -24.9476250684239 -45.3343755269697 53.5157110425008 -452.787815218997 493.801297833899
-0.0098500003144145 0.0572499968335032 0.00564999974519014 16 0.131511910756429 -0.202816619076766 -0.104950883767257 0.263523531488301 -15.6558481860921 17.1604095160238 -1.42847568861219 -22.9272539204193 4.12065571048204 -0.69205721713458 28.1968619370249 -10.0043913769701 0.969297127469245 -9.31233415983549 -29.625337625637 -40.0876634364431 50.7089829983896 -188.664836004037 351.102597707107
-0.00705000027269125 0.0572499968335032 0.00564999974519014 16 0.0780595636367798 -0.270373270966811 -0.0245149644472016 0.282481830584384 -19.0282256123617 11.1291478429672 -1.54686205977195 -22.8536863673241 4.83593501619505 -0.759155738945789 23.7318121198595 -7.45410503737968 -0.850453930022391 -6.69494929843389 -25.2786741796315 -33.9828342102914 42.8796774166122 -14.4056473122118 205.443694277421
-0.004250000230968 0.0572499968335032 0.00564999974519014 16 0.0155106536547343 -0.330451128527833 0.030069002895616 0.332178677306735 -22.3569650951622 2.76212437426907 -1.75508619996991 -19.5872214755599 5.81253574857226 -0.330638552854387 17.6355866758771 -4.3260818252127 -1.72950845718781 -3.99544327235832 -19.390672875847 -22.3493458498289 29.85724403618 9.52683715047524 -17.7129811401012
-0.00145000018924474 0.0572499968335032 0.00564999974519014 16 -0.0585499604543049 -0.377305227704346 0.0796296796134751 0.390036176011372 -25.4525075820921 -8.10685505215802 -2.54126543915941 -5.29509239978386 8.69009321077266 0.770243906663017 18.3242081306854 2.10327335203389 -0.404217644733603 1.33302944537087 -20.8654735698448 2.81176265237416 21.0962310380173 95.7127398265517 -212.388902912862
0.0013499998524785 0.0572499968335032 0.00564999974519014 16 -0.140871711969376 -0.351538073193709 0.147932187327096 0.406580604782505 -28.9414309264861 -19.4955461961363 -4.0892084983322 22.8233075450049 13.683728256982 2.54868107260192 27.6069836249625 12.4827546763777 3.02782055459579 9.93407360377583 -31.6961921232947 42.3188537411412 53.7979534503511 -8.9027739547382 83.8047361422822
0.00414999989420176 0.0572499968335032 0.00564999974519014 16 -0.235180491606394 -0.23576683527596 0.258388160380224 0.4214976935559 -24.9107708073848 -28.0209469557944 -5.61307225704581 58.3138216335813 17.7895187569722 4.76769142313619 35.9365834013151 24.1733798359061 7.07947519652797 19.4056884127699 -41.549655658361 86.3347685893758 97.7581039887893 -1278.29794953135 1226.90657458759
0.006949999935925 0.0572499968335032 0.00564999974519014 16 -0.291067566871643 -0.0123393744121616 0.374002335586022 0.474078406668414 -10.82442590714 -31.1228874690613 -5.64700003636239 80.1263119177669 16.7024037182376 6.68887915918655 30.3813219908729 32.2324931318248 9.95925250246689 25.5436139726382 -36.0283220272353 111.249199386828 119.695031505454 -1962.19248685127 2327.47259766209
0.00974999997764826 0.0572499968335032 0.00564999974519014 16 -0.297124860286713 0.216359229773807 0.44260284217579 0.575318846215558 10.023627097529 -28.5705043505719 -3.40366693729659 73.3169563632984 9.26393188803665 7.510216154832 9.96035822709736 32.9933251044348 10.8119275261745 25.4831089496028 -13.364025164394 101.88746071387 105.872756935164 -1666.28276982454 2182.2110481399
0.0125500000193715 0.0572499968335032 0.00564999974519014 16 -0.224883426427841 0.390507165624682 0.427498379720685 0.621146735119779 28.5341964360139 -21.6685231088842 0.0994119423573668 39.2757870577425 -1.02356299629913 6.96099221189272 -19.2346926259118 26.0674270224455 10.1905298760533 19.1064348105527 19.3341045682692 60.9443101666267 66.7313449011232 -41.8122714583696 922.646685523102
0.0153500000610948 0.0572499968335032 0.00564999974519014 16 -0.11975728948911 0.422063953139974 0.318332953667656 0.542047653178847 34.5998062459987 -12.4129698166494 2.65362102664225 -2.9588383365124 -8.87743352177628 5.17799505489776 -41.9729479910039 14.3930120540026 8.85930499469892 9.21501699910484 44.6265690176462 9.45413148013704 46.5384550949454 108.665677713407 -79.1497535290759
0.018150000102818 0.0572499968335032 0.00564999974519014 16 -0.0144114915529887 0.359873056049789 0.169371426492641 0.397998728228556 29.868308660127 -2.65051991173606 2.86508307381276 -29.9569616076368 -11.6948599067793 2.97278080056125 -49.9299526753638 1.76722646490301 7.23088400917535 -1.20555433565824 52.7950357491765 -27.3064416959008 59.4509118441818 176.988585015974 -159.497223305284
0.0209500001445413 0.0572499968335032 0.00564999974519014 16 0.05762561917305 0.244904435048035 0.0174634374875132 0.252198068866823 18.752296270384 6.05718697605087 1.27141521679523 -38.001554685529 -10.4351364887946 1.07111699682706 -42.3079460368579 -9.41757177370391 5.10696856338529 -10.488688770531 43.5793612536532 -44.0587416615799 62.8517783058149 2.24124487299515 140.853512170596
0.0237500001862645 0.0572499968335032 0.00564999974519014 16 0.0951639211177826 0.143150305012241 -0.0845788518354918 0.191577044254836 10.2158999943067 12.6256127512612 -0.374035979591133 -31.1805272670153 -7.15588710833857 -0.0258779796509661 -28.3303521495043 -18.2294701951668 2.27599066418065 -18.2035922155158 27.9563161699132 -43.8061400182765 55.0627304684556 -309.085657469464 316.465683467717
0.0265500002279878 0.0572499968335032 0.00564999974519014 16 0.118485465447108 0.0719634172056491 -0.154001770062629 0.207205415278064 6.44657948160585 16.9099622916779 -0.749958570337636 -24.1218915210542 -3.34471880132563 -0.303447586533393 -17.6148145943809 -24.665110179252 -1.04250978882917 -24.3616625927186 16.8648560240432 -41.0318538127321 50.6115303098275 -383.904067566145 362.409610980388
0.029350000269711 0.0572499968335032 0.00564999974519014 16 0.136471360127131 0.0119855367935573 -0.193897659093879 0.237411851914063 5.16425076686489 19.2011319137113 0.149050800658366 -18.8051382069988 0.0512891662774094 -0.264575358306205 -12.2599909195982 -28.7005058609813 -4.3866918136101 -28.4359305026751 12.4090417202565 -38.0062701207101 49.0618286293573 -352.422962409821 332.699757997057
0.0321500003114343 0.0572499968335032 0.00564999974519014 16 0.152767330805461 -0.0300924192594054 -0.231369907416132 0.278882493383967 3.55046234819643 20.1344966608207 1.39183927736921 -12.3804220972304 2.37604791155909 -0.191970468163807 -8.04041904396476 -30.6024046872693 -6.87592928767031 -30.4104342191055 9.43225832133397 -32.5149187580511 45.5080426768454 -237.349435357602 222.275583632151
0.0349500003531575 0.0572499968335032 0.00564999974519014 16 0.159545735518138 -0.0559045032023763 -0.243371562443014 0.296327306548488 2.17281731658333 20.3650975551394 2.05496297008872 -9.28769974094293 3.27618712885027 -0.212616837842567 -4.02561073616006 -31.0716545108515 -7.86700022225418 -30.859037673009 6.08057370624878 -29.6527972960823 43.2266349625304 -171.833676987906 155.062272295955
-0.0350500006899238 0.05444999679178 0.00564999974519014 16 -0.0383590400218963 0.447798000153465 0.0282100741673882 0.450322410254446 6.59360583684813 -0.85845902150201 2.64857142528371 -10.8685928436405 -13.3823829660683 -2.74436508603269 -15.5852230613034 14.8160934268169 -12.8479567984594 17.5604585128496 18.2337944865871 -10.0101338221385 27.2221186482193 -5.20963267404546 71.5928612257251
-0.0322500006482005 0.05444999679178 0.00564999974519014 16 -0.018261476357778 0.417821001934559 -0.0170829773143245 0.418568631517325 10.3182781960634 4.36701825447448 2.34100848850666 -17.3233117746299 -13.8139261116978 -2.11501730764998 -25.881015426713 10.3354656826139 -11.7273439656908 12.4504829902639 28.2220239152197 -21.6903300291044 37.7089853660046 -55.6437961390541 56.5573172434513
-0.0294500006064773 0.05444999679178 0.00564999974519014 16 0.0231108204523722 0.35220286538611 -0.12203864729808 0.373462715465029 12.5437593731481 14.5462135848991 1.67916730382435 -27.6220421176153 -14.1228544274381 -0.987047081459753 -30.6268180173616 0.265206855475149 -9.15180707229762 1.2522539369349 32.3059853211859 -42.1682557025144 53.1357376582643 -302.466696592166 290.783333067421
-0.026650000564754 0.05444999679178 0.00564999974519014 16 0.054866491953532 0.264494461766056 -0.191679280713821 0.331222884020973 9.34043496174296 25.5070571017302 0.799334711414002 -31.5326642416486 -13.2275134156317 0.109297090458968 -19.0209336899963 -12.7923326920662 -5.27365029964089 -12.9016297825252 19.8202684014103 -57.0397213433788 61.7480760953699 -646.835836469855 717.856088355548
-0.0238500005230308 0.05444999679178 0.00564999974519014 16 0.0765251823266346 0.176028111899892 -0.226402769559451 0.296816801703266 5.07442097467833 34.0589899106829 0.0208209576087057 -30.7826376130694 -10.8187076341732 0.816027749265686 -3.66163846873017 -25.1217495378815 -1.34453772534819 -25.9377772871472 3.68245942633887 -64.8416275237522 69.9340078785229 -950.353083065698 1021.82656062123
-0.0210500004813075 0.05444999679178 0.00564999974519014 16 0.0834228189786275 0.0913729438940451 -0.206316562954647 0.240572038590573 2.501963059433 39.0808491037257 -0.464218244844545 -29.4098285008107 -7.398425556022 1.07579282069148 5.99985045069604 -33.2646405735968 1.37003000419396 -34.3404333942883 -6.46406869554059 -68.4906776045364 76.8896772560319 -1123.58384570808 1162.71328339027
-0.0182500004395843 0.05444999679178 0.00564999974519014 16 0.0910183250904084 0.00975819196125182 -0.186395451193675 0.20766035259122 1.2541205627555 40.6802263790051 -0.69473205606895 -28.5134261463773 -3.73492600293426 0.994781795408196 7.4566393417903 -35.5498182599966 2.47431021177835 -36.5446000554048 -8.15137139785925 -69.1936525253824 78.6747367245591 -1180.01203440469 1189.65497915736
-0.015450000397861 0.05444999679178 0.00564999974519014 16 0.0916023957729339 -0.0701111279482332 -0.162536700714942 0.199310682736309 -0.915772489684532 39.130817113594 -0.940993041679351 -27.714816124453 -0.42090579522864 0.594818716556885 11.0119913313161 -32.6845212684446 2.6178928559782 -33.2793399850014 -11.9529843729954 -66.845633238047 75.6222651621457 -1110.0008682685 1111.19314672803
-0.0126500003561378 0.05444999679178 0.00564999974519014 16 0.0866633892059325 -0.147722150133613 -0.126394188327467 0.212856448132811 -4.85203302671084 34.648315305075 -1.31162167124517 -25.6439863094795 2.12225213803117 -0.00933682064918735 17.9851545584665 -26.8328388139138 2.52656866934736 -26.8235019932646 -19.2967762297116 -60.2923016145545 68.7533814879141 -890.758793098501 894.665892073681
-0.0098500003144145 0.05444999679178 0.00564999974519014 16 0.0638383340835571 -0.216907871885536 -0.064395765682372 0.235098218671037 -8.73760320235125 27.4021238440242 -1.6825586661457 -23.5817420158476 3.28226601308597 -0.517945245365221 23.3521978102107 -20.2242792285574 2.13944301647761 -19.7063339831921 -25.0347564763564 -50.9838658598718 60.1201564278154 -613.1504945299 634.655667628822
-0.00705000027269125 0.05444999679178 0.00564999974519014 16 0.0347243277231852 -0.283557548105261 0.00519583870385151 0.285723045558336 -9.57276420151332 17.0596791224915 -1.87443201963173 -22.4619975013708 2.82978593684786 -0.703788290700632 19.1957601515944 -13.3938494730685 1.34429941889602 -12.6900611823678 -21.0701921712261 -39.5216766238623 46.5505485908145 -342.967850986569 373.595727589337
-0.004250000230968 0.05444999679178 0.00564999974519014 16 0.00506250222523996 -0.346899901243936 0.0501798061151446 0.350546977384753 -9.3585258877024 2.97280197288154 -1.98761031972525 -20.3274015382442 2.20167640120161 -0.566715202426069 10.1722269891172 -4.52246103021042 0.736393180591594 -3.95574582778435 -12.1598373088425 -23.3002035111258 26.5783568358058 -20.5024635129027 52.2101145630368
-0.00145000018924474 0.05444999679178 0.00564999974519014 16 -0.024978674252828 -0.403003360165555 0.0743342817085795 0.410562087764186 -10.2992423472773 -14.309923042966 -2.51845400575546 -9.19732765047173 3.96653425237341 -0.118725425853227 6.03883860636962 8.79691300361868 1.49449133456135 8.91563842947191 -8.55729261212508 5.11259539249424 13.3736493561765 113.554398267438 -165.676571274433
0.0013499998524785 0.05444999679178 0.00564999974519014 16 -0.0611931339899698 -0.404302602691751 0.0986807279647716 0.420646027275303 -15.1885555242548 -31.8273725360337 -3.780263943058 16.044660166162 9.65378183569484 0.72993555616174 11.709907123292 26.5998777052612 3.93072222298596 25.8699421490994 -15.49017106635 47.8720327021957 56.5767692741697 -383.525505684974 367.127060103299
0.00414999989420176 0.05444999679178 0.00564999974519014 16 -0.118299525976181 -0.315387534530213 0.15101054376292 0.369145308937832 -16.8753549602894 -45.0902630257023 -5.28107112653021 53.5765385655153 17.0639217826135 2.20555040761521 21.8554043720407 44.8875080766778 7.26994154213116 42.6819576690626 -27.1364754985709 98.6668015912176 110.875044753943 -2022.55851375093 2145.60963185711
0.006949999935925 0.05444999679178 0.00564999974519014 16 -0.160218705336253 -0.0955583320860751 0.226531030546563 0.29345823582102 -10.4731690824955 -50.3749951841754 -5.78728118891311 81.9482849827619 21.0663468244191 4.03518967420134 24.192459961703 57.0984358392035 10.356299255707 53.0632461650022 -29.9797411506161 132.323280166937 145.68439671826 -3457.33341802475 3926.82471761818
0.00974999997764826 0.05444999679178 0.00564999974519014 16 -0.17426039536794 0.161592533302804 0.287331294384397 0.372878136856563 3.46524344826731 -46.7202514780476 -4.38324399856718 81.9657148294668 18.0340871234566 5.43748109523172 14.1541211178065 58.3327030050543 12.1827417697964 52.8952219098226 -18.5373651163736 128.685966307514 140.36244629831 -3243.36218589507 3898.73010086034
0.0125500000193715 0.05444999679178 0.00564999974519014 16 -0.131484392881393 0.382502020133349 0.304711847480891 0.506404236724673 17.0561511721078 -35.5858038065675 -1.56352200122534 49.8427793327336 9.10583126663286 5.79171504434312 -6.10064326288033 47.9307888333031 12.3942961001793 42.13907378896 4.53712126165498 85.4285831393012 95.3641957252452 -1539.55397166271 1966.12519731732
0.0153500000610948 0.05444999679178 0.00564999974519014 16 -0.06738445798556 0.449880515451853 0.251159264633704 0.519628828658087 21.3909930836036 -20.1544986725011 1.02301081448565 4.3507047998704 -0.916833619263976 4.82978553145346 -25.0983563290359 29.5965627767463 10.9335446260454 24.7667772452929 26.1213671435215 24.5052034723715 43.5456550506125 37.1965368998803 174.660267959603
0.018150000102818 0.05444999679178 0.00564999974519014 16 -0.00315497557322186 0.40283663962114 0.157861316239384 0.432674828545584 17.1451446425479 -3.9849713974403 2.04487940176437 -27.5088834126549 -7.85702856562567 3.14793312678157 -33.3779223891387 8.79572641765278 8.26263952521215 5.64779329087121 35.4228017909031 -23.5239120152146 42.8957677664542 157.221187595723 -127.022182378294
0.0209500001445413 0.05444999679178 0.00564999974519014 16 0.0332846721013387 0.285100914008605 0.0535843001484561 0.291996023582232 8.60337339648828 10.1794086062476 1.57891882980345 -39.0254165337493 -10.5409683303721 1.525871640023 -28.6286909903844 -10.2507606764389 4.93775258997087 -11.7766323164619 30.2076098201878 -49.2048251399969 58.9262554115185 -361.962131053806 357.844134298381
0.0237500001862645 0.05444999679178 0.00564999974519014 16 0.0476336924235026 0.17270667030185 -0.0169837666545451 0.179958358934573 3.03866259719745 20.9371431020422 0.825495553275364 -34.35783683659 -9.61904629303308 0.545794329053405 -17.9800980203167 -25.4683714306373 1.33816873476029 -26.0141657596907 18.8055935735921 -55.2949799386323 63.9368592929113 -632.125896498283 710.063230268754