TITLE="DynamicStudio Exported Data"
VARIABLES= "X (m)[m]" "Y (m)[m]" "Z (m)[m]" "Status[-]" "U[m/s]" "V[m/s]" "W[m/s]" "Length[m/s]" "dU/dX[1/s]" "dU/dY[1/s]" "dU/dZ[1/s]" "dV/dX[1/s]" "dV/dY[1/s]" "dV/dZ[1/s]" "dW/dX[1/s]" "dW/dY[1/s]" "dW/dZ[1/s]" "Vorticity X[1/s]" "Vorticity Y[1/s]" "Vorticity Z[1/s]" "Vorticity Magnitude[1/s]" "Lambda-2[1/s²]" "Q-Criterion[1/s²]"
ZONE T="DynamicStudio Data" I=26 J=26 F=POINT
-0.0350500006899238 0.0600499968752265 0.00564999974519014 16 -0.142171631852786 0.415751834690648 0.200459746785928 0.482955972148396 3.61729258869151 -9.48939751589294 1.07896865644742 -6.81553750030327 -12.5685398925923 1.79118527699766 -8.82099940508076 3.38433174130247 -1.65401412423469 1.5931464643048 9.89996806152818 2.67386001558967 10.3777170253854 56.2214010740094 -91.8783246697047
-0.0322500006482005 0.0600499968752265 0.00564999974519014 16 -0.13061925748984 0.396318381543582 0.174834078891824 0.452434089253312 8.6457955116589 -7.39268650120703 0.588752580755414 -10.6457920238597 -12.2681542388867 1.67350126153502 -17.8871393199381 0.282893858288073 -0.06463411517615 -1.39060740324695 18.4758919006935 -3.25310552265269 18.8115673461195 178.257880900117 -174.477151684946
-0.0294500006064773 0.0600499968752265 0.00564999974519014 16 -0.088802886803945 0.356962922979728 0.0953638319702198 0.38000360726576 16.8966253130633 -2.9576340456494 -0.385463421239696 -15.7001597325157 -11.1234740837479 1.5730174736077 -26.0473210717502 -5.5694556545629 2.76538618188785 -7.14247312817059 25.6618576505105 -12.7425256868663 29.5282546274268 136.36464855515 -219.698946515519
-0.026650000564754 0.0600499968752265 0.00564999974519014 16 -0.0281690112749735 0.311355399300422 0.022787280716002 0.313456437216026 24.1939372508098 2.32815134698587 -1.57582545817913 -17.7550641050409 -9.23832841229783 1.55479133337758 -28.3964970354142 -11.3074282239728 5.57625207709172 -12.8622195573504 26.8206715772351 -20.0832154520268 35.890397861934 31.7076292873798 -125.946048193704
-0.0238500005230308 0.0600499968752265 0.00564999974519014 16 0.0540125354131062 0.261450923139152 -0.0680489891635565 0.27550790209765 26.4458200841464 6.76249118408583 -2.69301588817718 -18.7307965838437 -7.17982871698197 1.67657029535937 -27.9324784694564 -14.2982421936681 6.56726937136108 -15.9748124890275 25.2394625812793 -25.4932877679296 39.2699990663337 15.0249586583085 12.0647431226861
-0.0210500004813075 0.0600499968752265 0.00564999974519014 16 0.124725467761358 0.21063097064279 -0.136202293105113 0.28013017107999 22.0831749163513 9.87762132989739 -3.2561046014857 -22.6032164405678 -5.43686626102398 1.73934912815275 -26.2291275203966 -14.2413900401632 4.64943637897479 -15.980739168316 22.9730229189109 -32.4808377704652 42.8736355896002 21.8900481940348 119.964663774283
-0.0182500004395843 0.0600499968752265 0.00564999974519014 16 0.182172894875209 0.137339449579595 -0.219080150844917 0.316299226259363 12.3564802200568 11.7738093431625 -3.01517693060821 -27.6558975023469 -4.02196726388457 1.68699017127036 -21.4308590819427 -12.4320956632669 0.815963352229466 -14.1190858345373 18.4156821513345 -39.4297068455094 45.7513684584934 -99.4771869847014 239.073553880924
-0.015450000397861 0.0600499968752265 0.00564999974519014 16 0.197197981675466 0.0582291402648358 -0.259539899782588 0.331117254657644 2.66563079472221 12.7322559668591 -2.10352445819026 -30.5429929904195 -2.47929706446079 1.56640995498715 -10.0898718649132 -10.3700199760364 -2.64854791625069 -11.9364299310235 7.98634740672298 -43.2752489572786 45.5961322560757 -398.314825398812 376.798210606731
-0.0126500003561378 0.0600499968752265 0.00564999974519014 16 0.200666928291321 -0.030976118603697 -0.277373047022847 0.343747790172334 -3.88842834249114 13.0397798117413 -0.93663178526036 -29.417067774531 -0.443749868365109 1.26177715820449 4.70361672936071 -8.91576697870049 -4.04320739541508 -10.177544136905 -5.64024851462107 -42.4568475862723 44.0224796544821 -385.555978273102 418.488739088472
-0.0098500003144145 0.0600499968752265 0.00564999974519014 16 0.17745507478714 -0.102845350531861 -0.231086417115682 0.308979614002435 -6.13233363036982 12.5685256762596 -0.140414065584766 -25.8955274861909 2.17603529021136 0.801380678039735 17.4507718333774 -7.56598737586267 -3.43745430254767 -8.3673680539024 -17.5911858989621 -38.4640531624506 43.1154966939398 -284.276828100128 334.237592385009
-0.00705000027269125 0.0600499968752265 0.00564999974519014 16 0.165630238850911 -0.171643642697406 -0.174190940171053 0.295359780162974 -5.90124632352437 11.4534744380086 0.234939627514656 -23.9403739154282 4.69559726387885 0.277145857042748 20.5368298664014 -6.15653624598388 -2.65698869553558 -6.43368210302663 -20.3018902388868 -35.3938483534368 41.3071847738465 -231.812782000378 246.575323863934
-0.004250000230968 0.0600499968752265 0.00564999974519014 16 0.142416067123413 -0.233965756628362 -0.113047434218849 0.296314079707744 -6.2586656257835 9.58877814807281 0.531470613942577 -22.3673204262836 5.93405698435413 -0.154331926186717 15.977491913977 -4.35799104474277 -3.1964841744298 -4.20365911855605 -15.4460213000344 -31.9560985743564 35.7413284599232 -168.515974291998 169.209456661261
-0.00145000018924474 0.0600499968752265 0.00564999974519014 16 0.126783808867137 -0.297126107429309 -0.0827935184829403 0.333485868680724 -12.1988125968882 6.67785132434995 1.09618643941866 -18.9992569813438 5.10573692829329 -0.583822650641569 10.7403609802096 -1.71829675394866 -5.12199562314035 -1.13447410330709 -9.64417454079098 -25.6771083056937 27.4519767049049 -23.9333573311647 88.1443693399703
0.0013499998524785 0.0600499968752265 0.00564999974519014 16 0.0692819190025329 -0.345131446572292 -0.0521243413584307 0.355854811230376 -24.8986938638462 2.34818543755447 1.93774509238867 -9.56934999561309 2.71307863678194 -1.21273567255308 15.7927930435474 2.36994866457378 -7.2037910246966 3.58268433712686 -13.8550479511587 -11.9175354331676 18.6232551287149 0.847312058384335 87.0107438232879
0.00414999989420176 0.0600499968752265 0.00564999974519014 16 -0.0207140088081359 -0.357251962794495 0.0121138813831688 0.358056952458109 -38.6149488430312 -3.11181442462159 2.59901993243036 6.18755064307723 0.253637076263896 -1.95933658593722 31.2726802563768 7.88560185835389 -8.12177429660262 9.8449384442911 -28.6736603239464 9.29936506769883 31.7108782597909 3.96265167660272 255.194471407231
0.006949999935925 0.0600499968752265 0.00564999974519014 16 -0.156873436371485 -0.315571935453142 0.133199069304392 0.376745157298931 -42.4901472961904 -8.36043910689114 2.71949262578146 29.1504764128044 -1.36251995163429 -2.38191175756395 46.6519791912197 13.682821587476 -7.26952250305062 16.0647333450399 -43.9324865654382 37.5109155196956 59.960051837831 56.7250853376294 526.113968029137
0.00974999997764826 0.0600499968752265 0.00564999974519014 16 -0.268245474497477 -0.196048869347821 0.287588165063256 0.439428886676088 -26.6543118145048 -11.9863346561697 2.30546029663181 51.4412753298034 -2.49368564904267 -2.21584297226476 41.7832232019953 18.6198821937315 -4.95283878770899 20.8357251659963 -39.4777629053635 63.427609985973 77.5608336451958 157.55049567163 772.354321467502
0.0125500000193715 0.0600499968752265 0.00564999974519014 16 -0.312104090452194 -0.0288154572412939 0.380092003554261 0.492655280108626 1.51331392498114 -13.2386695927012 1.65261471221498 63.5404674922265 -4.08096245171632 -1.71292639429653 13.4674208051717 21.6599242403823 -2.17568437146081 23.3728506346788 -11.8148060929567 76.7791370849276 81.1228431535242 -872.094953865809 855.447268532467
0.0153500000610948 0.0600499968752265 0.00564999974519014 16 -0.261174997886022 0.156859052525057 0.372206856365083 0.48099385214886 29.8925535034177 -12.1374956341816 1.05548031119714 56.8160626368592 -6.04818246805319 -1.32918301357729 -26.6424534529502 22.3792557762583 -0.101977522489902 23.7084387898356 27.6979337641473 68.9535582710407 77.9990948850837 -190.027652414177 564.244215993914
0.018150000102818 0.0600499968752265 0.00564999974519014 16 -0.141421914299329 0.286008592462167 0.232735062982538 0.394926173287822 43.3453146670022 -8.75481212149698 0.614817892574717 34.4299323323197 -7.44932072737545 -1.2217446850501 -54.0048134906925 20.3166176348449 0.630306210302258 21.5383623198949 54.6196313832673 43.1847444538167 72.8843421964452 -14.0168143124149 59.1847510797272
0.0209500001445413 0.0600499968752265 0.00564999974519014 16 -0.010586571296056 0.347997185973218 0.0636542697010251 0.353929347452646 41.2457582263523 -3.49973249873397 0.279620415725386 9.74776204278873 -7.60968887240966 -1.06703370719582 -56.6894080996834 15.7426533664436 0.680706026681784 16.8096870736394 56.9690285154088 13.2474945415227 60.8566504264802 20.8800048915565 -224.20709503223
0.0237500001862645 0.0600499968752265 0.00564999974519014 16 0.100174619356791 0.342353400862 -0.0948005124026289 0.369090696979558 31.0335754587106 2.5295224314266 -2.35816785597816E-05 -8.46704466534758 -6.6662931314352 -0.543939999546173 -41.6252146764525 9.47170207406131 0.928528529421347 10.0156420736075 41.625191094774 -10.9965670967742 44.2028744284455 40.3273945573445 -157.684558660617
0.0265500002279878 0.0600499968752265 0.00564999974519014 16 0.174071924090385 0.304502964022249 -0.18166258390235 0.394999220562449 19.2403114160202 7.59465460775786 -0.147291897478717 -16.9246899484645 -5.30568079593965 0.373996735555072 -19.9982203866812 3.06997414824456 1.76864046340905 2.69597741268949 19.8509284892025 -24.5193445562223 31.6626896134853 -12.4412825507335 47.0058391348012
0.029350000269711 0.0600499968752265 0.00564999974519014 16 0.215391431252162 0.252208912518108 -0.215740502921787 0.395659915598443 11.0506865406967 10.5308927445548 -0.0284068991765109 -18.4173037316763 -3.80053776347116 1.4871520387321 -5.40249179593944 -1.85034633748724 2.71483533867408 -3.33749837621934 5.37408489676293 -28.9481964762311 29.6313645165956 -63.089585779974 174.233337131434
0.0321500003114343 0.0600499968752265 0.00564999974519014 16 0.239909342130025 0.206510228597714 -0.218308905029747 0.384527950833264 4.96513024852312 11.5455157162255 0.301235957046861 -12.9704527296329 -2.4213016156135 2.47039214509325 1.0110604423027 -4.70182045800282 3.20264909853704 -7.17221260309607 -0.709824485255836 -24.5159684458583 25.5534184261558 -142.178835892501 157.186250989195
0.0349500003531575 0.0600499968752265 0.00564999974519014 16 0.244367993275324 0.183331076786853 -0.212709050249929 0.372251447158319 1.68397747348605 11.5901429351567 0.509489016535001 -8.82215527616231 -1.63697541135205 2.94243100543935 2.38246025619124 -5.58428524463329 3.18179076009224 -8.52671625007265 -1.87297123965624 -20.412298211319 22.2007844352773 -115.750235825033 114.86049837067
-0.0350500006899238 0.0572499968335032 0.00564999974519014 16 -0.114205090999603 0.450117151686475 0.189096486370157 0.501403763657705 1.15140263226808 -18.4309670113498 0.543356891607598 -6.83275031776728 -16.4250751436171 1.15172932752013 -5.59809304601588 9.78333028851427 -0.509466542965152 8.63160096099414 6.14144993762348 11.5982166935825 15.707978003469 38.9365287152229 -145.290631304066
-0.0322500006482005 0.0572499968335032 0.00564999974519014 16 -0.108524930874507 0.430849934884803 0.172622073967941 0.476663096361097 4.91094653760402 -14.5730583900491 0.0622914207775441 -11.0323364834424 -16.1329216294483 1.10487118409517 -13.0425595964154 4.89826107297478 1.01639630228422 3.79338988887961 13.104851017193 3.54072190660666 14.0948089256932 169.075479899213 -256.008281300995
-0.0294500006064773 0.0572499968335032 0.00564999974519014 16 -0.0801167349020639 0.388116676943027 0.112338328704548 0.411914003438578 11.5010620672393 -6.92099698868942 -0.829425468389518 -16.7806953942007 -15.0474015598936 1.1160200118968 -19.6852828709716 -4.35757368037615 3.67584635719126 -5.47359369227295 18.8558574025821 -9.85969840551128 21.9708269972307 315.868637487581 -313.700376222845
-0.026650000564754 0.0572499968335032 0.00564999974519014 16 -0.0360498126347859 0.336616782992314 0.0572629398371403 0.343350392255331 18.9695884263506 1.93698661738204 -1.87583261345645 -19.1560660979884 -13.1942457957445 1.21235696849709 -23.2564918058871 -13.9469595875452 6.25472309048432 -15.1593165560423 21.3806591924307 -21.0930527153705 33.6430429480237 110.100685561123 -203.777791919537
-0.0238500005230308 0.0572499968335032 0.00564999974519014 16 0.0338662163416545 0.281047891383253 -0.0245577578798596 0.284144191093815 22.5838307296517 9.54521151730268 -2.76214917110179 -20.211033783203 -10.999173168543 1.40632369093335 -25.9296366646369 -20.0928686319934 6.9816527299125 -21.4991923229267 23.1674874935351 -29.7562453005057 43.4094676503314 25.3443879562602 -17.9692637180753
-0.0210500004813075 0.0572499968335032 0.00564999974519014 16 0.0967828365166983 0.224559881235909 -0.096263592390654 0.262794096061646 19.4391466264057 15.0128524464724 -3.0942512392435 -23.8009133371032 -8.90222655796763 1.53603364845033 -26.5368853627957 -21.8069033122488 4.90032199108309 -23.3429369606992 23.4426341235522 -38.8137657835756 50.9995903405525 32.7142548782971 187.286560625667
-0.0182500004395843 0.0572499968335032 0.00564999974519014 16 0.147904424667358 0.149068291354148 -0.182384478670234 0.278138764618024 11.0039817510496 18.3773165343368 -2.66479660466969 -28.9464411545325 -6.88561900829306 1.54980216168497 -23.0588724800936 -20.474230197331 0.974972884913246 -22.024032359016 20.3940758754239 -47.3237576888694 56.0402924149969 -400.086608513336 430.487778858081
-0.015450000397861 0.0572499968335032 0.00564999974519014 16 0.162763486305873 0.0646265419914077 -0.233322020272414 0.291732253184679 1.97995312754665 20.0960104626207 -1.66783021672535 -32.2365154238511 -4.41577632248373 1.45373953600567 -11.5530265317641 -18.0704206947395 -2.53782051959189 -19.5241602307452 9.88519631503878 -52.3325258864718 56.7239209201983 -645.657575237237 652.265201433999
-0.0126500003561378 0.0572499968335032 0.00564999974519014 16 0.162572656869888 -0.0286554455693113 -0.25041585966091 0.299931835743095 -3.89078434613029 20.6815361851414 -0.601978830537949 -31.6753882473766 -1.14244914823841 1.13725982329204 3.58966656075633 -15.9780668583962 -3.919342838387 -17.1153266816882 -4.19164539129428 -52.3569244325179 55.242663173852 -682.26312348979 699.599795899014
-0.0098500003144145 0.0572499968335032 0.00564999974519014 16 0.143119200070699 -0.109610526361503 -0.211721086284767 0.2780708386288 -5.45822448345682 20.1668677536948 0.0133579860978732 -28.5027201507821 2.84980226967288 0.662719002365526 16.178792668602 -14.0420640592957 -3.38481745187881 -14.7047830616613 -16.1654346825041 -48.6695879044769 53.3505455469429 -567.351989323968 577.174587008121
-0.00705000027269125 0.0572499968335032 0.00564999974519014 16 0.132344970703125 -0.185342402317328 -0.156309804544629 0.276224098086951 -4.63990938277607 18.6031054121172 0.220511424661573 -25.8722629963298 6.54903002394317 0.216813593815665 19.2908573661811 -11.993929437593 -2.75362837995748 -12.2107430314086 -19.0703459415195 -44.4753684084469 49.9083032648417 -445.6894930242 444.007113640861
-0.004250000230968 0.0572499968335032 0.00564999974519014 16 0.115538095633189 -0.252462295338822 -0.10133638790343 0.295559343658096 -3.83176904315951 15.5364373187235 0.430403217645995 -22.6801476911521 8.38092646288825 -0.0284716132534459 13.682806012936 -9.05278610341194 -3.46862598932065 -9.02431449015849 -13.25240279529 -38.2165850098756 41.4435978370959 -284.541994201493 298.328721594706
-0.00145000018924474 0.0572499968335032 0.00564999974519014 16 0.106731573740641 -0.312086719460785 -0.0781690464981754 0.338969245105486 -8.56277248702004 10.4438095674723 0.953738004658544 -17.2338143164927 7.20441774825934 -0.272764518634339 7.59185127734899 -4.48948859644163 -5.42362790034163 -4.21672407780729 -6.63811327269045 -27.6776238839649 28.7731849754534 -101.928628382715 117.198885137691
0.0013499998524785 0.0572499968335032 0.00564999974519014 16 0.0613518273830413 -0.352190475833098 -0.0568239682829881 0.361982239014856 -19.6640638986192 3.01636145464229 1.76854431654767 -6.83493635927696 3.50211421090921 -0.907193186441845 10.7567507447231 2.33231493240251 -7.31261392661775 3.23950811884435 -8.98820642817543 -9.85129781391925 13.7233500380222 7.53636879651067 53.0290091443306
0.00414999989420176 0.0572499968335032 0.00564999974519014 16 -0.0116308871905009 -0.356771878663373 -0.0119015661751231 0.357159765678123 -32.9283351464202 -6.08488225313699 2.46666717614446 8.43734243757385 -0.662277366417516 -1.90907016239473 25.5147975095371 11.2876889134731 -7.90945403550199 13.1967590758678 -23.0481303333926 14.5222246907108 30.2698822584272 25.6704819605311 297.443808622323
0.006949999935925 0.0572499968335032 0.00564999974519014 16 -0.132602300643921 -0.311548788462145 0.0968654807586184 0.35217742558388 -37.677020461632 -14.8350812235498 2.77171952156359 30.3202610384553 -3.54313477726557 -2.6812779676553 40.8537656467446 20.9113786284138 -6.89420706924965 23.5926565960691 -38.0820461251811 45.1553422620051 63.6070799293544 135.864628482559 810.312621386844
0.00974999997764826 0.0572499968335032 0.00564999974519014 16 -0.231519458293915 -0.189992753773404 0.231493114554711 0.378533443887525 -24.1261050117052 -20.9677830111483 2.67992095487575 52.1574194034557 -5.05200824409931 -2.70840363978802 37.4824250792012 29.3647034269311 -4.8108986671842 32.0731070667192 -34.8025041243254 73.125202414604 87.104498841413 -441.600827206656 1334.96521329704
0.0125500000193715 0.0572499968335032 0.00564999974519014 16 -0.273453582525253 -0.01844563679498 0.320394644512174 0.42162759817729 1.35460477373427 -22.9198356838572 2.32028097359489 64.7532922775571 -6.45188483552437 -2.10172244881061 11.5393545359362 34.5802204700771 -2.5822593581687 36.6819429188878 -9.21907356234131 87.6731279614143 95.4836824813063 -1535.55574329036 1534.46104500285
0.0153500000610948 0.0572499968335032 0.00564999974519014 16 -0.224028462966283 0.174901268341734 0.304255662775055 0.4163540731364 27.1436378247328 -20.3792688400987 1.86970820081812 58.0959717489582 -8.28887872750833 -1.45874780808276 -25.629131237517 35.2551873452541 -1.17002965322658 36.7139351533369 27.4988394383351 78.4752405890569 90.8980890360689 -907.619765478892 1036.24990151605
0.018150000102818 0.0572499968335032 0.00564999974519014 16 -0.115519208113352 0.30748406016394 0.174993560105274 0.372174529994135 38.3243804615556 -13.7369801268621 1.38276081600503 35.1619673254375 -9.83377674628438 -1.14869439234253 -49.5978157757583 30.5224134620245 -0.930923235451937 31.671107854367 50.9805765917633 48.8989474522996 77.4156658842017 -20.2697684062672 183.26612138045
0.0209500001445413 0.0572499968335032 0.00564999974519014 16 0.000956741571426445 0.371183252701691 0.0148032747406069 0.371479554462541 35.0635115302032 -4.28549243285398 0.919598806250964 9.31318417377136 -10.0777778220401 -0.972806402328705 -50.2025612667494 21.15322367029 -1.08933034457661 22.1260300726187 51.1221600730004 13.5986766066253 57.3407399913489 39.3958185432487 -273.924209641275
0.0237500001862645 0.0572499968335032 0.00564999974519014 16 0.0925015008449555 0.36015423164703 -0.122476200239422 0.391494594926825 25.1223774874707 5.79820059114822 0.50811541086121 -9.66352645086101 -8.76118341450078 -0.564007297854411 -34.3096625154725 9.44114177383665 -0.61399315183473 10.0051490716911 34.8177779263337 -15.4617270420092 39.388395128462 65.0308289922146 -151.358212186659
0.0265500002279878 0.0572499968335032 0.00564999974519014 16 0.151586785713832 0.320186610195475 -0.190932182116691 0.402433991008913 15.2571889294038 14.0041436568941 0.244502338174866 -18.2393586797292 -6.70357034288781 0.253949839183016 -14.3374042449363 -1.40131722028265 0.813943368078111 -1.65526705946567 14.5819065831112 -32.2435023366233 35.4261958382291 -73.2514508547531 163.972514203102
0.029350000269711 0.0572499968335032 0.00564999974519014 16 0.185072749058406 0.262128038460699 -0.210091525823615 0.383538107903483 9.14416637186907 18.9150402667391 0.249375527822632 -19.6079390304569 -4.69998065699868 1.32039111876483 -1.90637113152623 -8.91814719786343 2.38708725417774 -10.2385383166283 2.15574665934887 -38.5229792971959 39.918602736726 -314.277193554816 350.767054974906
0.0321500003114343 0.0572499968335032 0.00564999974519014 16 0.207127362887065 0.213209087826156 -0.204278821505335 0.360679492768607 4.49770786380113 20.9507751630651 0.451168899043311 -13.6394076891045 -3.30013578136569 2.29128593045325 2.40153136714992 -12.8542474136187 3.29635889341745 -15.1455333440719 -1.95036246810661 -34.5901828521696 37.8110016236006 -303.931075818465 303.23000456325
0.0349500003531575 0.0572499968335032 0.00564999974519014 16 0.212661937872569 0.186544676089349 -0.19782768317246 0.34519531895201 1.72925942498932 21.3882278243089 0.590994862518464 -9.46255854525823 -2.67915513361587 2.76558806687244 2.84107396587844 -14.1034346461515 3.46612387749174 -16.8690227130239 -2.25007910335997 -30.8507863695672 35.2334756004083 -225.186122723713 231.787177945676
-0.0350500006899238 0.05444999679178 0.00564999974519014 16 -0.0325332820415496 0.505805151041908 0.139124006490844 0.525597521344028 -3.66081257646255 -27.4852111072527 -0.448588760064448 -6.38804257867709 -12.2141603290427 0.00145055886864882 0.787232089599167 19.2522861286732 1.70029351422642 19.2508355698045 -1.23582084966362 21.0971685285756 28.5869278382836 -2.10450075819334 -157.529843670749
-0.0322500006482005 0.05444999679178 0.00564999974519014 16 -0.0451322038968405 0.486533474850208 0.143637967090278 0.509297166267624 -2.54661784156993 -22.2814836131359 -0.891327401202443 -10.9443504974503 -12.7425357422337 0.134267705376455 -3.14805675850314 12.1144107944287 3.21104047209656 11.9801430890522 2.2567293573007 11.3371331156856 16.647739879907 93.8186782893464 -264.932611727783
-0.0294500006064773 0.05444999679178 0.00564999974519014 16 -0.0495361550649007 0.441246095204454 0.122610375519531 0.460635703541131 0.617203633491056 -11.5921222015733 -1.59063702296403 -17.676695735463 -13.0200414565182 0.405949701241224 -6.49621842671706 -1.71332173438722 5.6473036062591 -2.11927143562844 4.90558140375304 -6.08457353388969 8.09802910688948 117.953325324855 -292.626627839106
-0.026650000564754 0.05444999679178 0.00564999974519014 16 -0.0427625783284504 0.384466243735127 0.108139667197441 0.401667920425154 8.06021236053691 1.34312869191712 -2.31350983283085 -20.8769081145742 -12.2563548628192 0.744500986397306 -12.0466678167129 -16.5228242606469 7.81464208063661 -17.2673252470443 9.73315798388205 -22.2200368064913 29.7762476012047 44.8825609589994 -119.108625934595
-0.0238500005230308 0.05444999679178 0.00564999974519014 16 -0.00317135373751332 0.322847345794241 0.0546941955150881 0.327462854678141 14.0078195367794 13.2202910506824 -2.7486901941594 -22.3831001400502 -10.5585191165878 1.08301397913476 -20.1538660249412 -27.3625098450686 8.05152004319593 -28.4455238242034 17.4051758307818 -35.6033911907326 48.7820605921284 -60.5963698187558 150.018626324677
-0.0210500004813075 0.05444999679178 0.00564999974519014 16 0.0390924604733784 0.258426315561907 -0.0116103315989797 0.261624121289692 13.5279245610135 22.2398833797771 -2.61318119162832 -25.5589074594523 -8.72540524796679 1.31710454561757 -25.275122187668 -32.6860089796366 5.60726493263022 -34.0031135252542 22.6619409960397 -47.7987908392294 62.8848129901943 -351.852246169163 454.321912474549
-0.0182500004395843 0.05444999679178 0.00564999974519014 16 0.0765323698520661 0.177865551631354 -0.0991598812397569 0.217545489817146 7.85366204055039 27.9369610678041 -1.80916061501248 -30.797415065246 -7.13304476457873 1.42530631282851 -24.5187947425995 -33.8205230071762 1.51891263023038 -35.2458293200047 22.709634127587 -58.7343761330502 72.1645543629446 -814.623762938039 809.306384617104
-0.015450000397861 0.05444999679178 0.00564999974519014 16 0.0870574223995209 0.0824121437912496 -0.16318072890174 0.202481373276708 0.611537969650034 30.737002007916 -0.683508962851401 -34.8408681032885 -5.1475608602372 1.35066258218823 -13.7522817927303 -32.5651549862956 -1.9793181990952 -33.9158175684839 13.0687728298789 -65.5778701112045 74.9768801227396 -1083.93930795198 1111.31886504821
-0.0126500003561378 0.05444999679178 0.00564999974519014 16 0.0820312738418578 -0.0220215087101496 -0.183543628377593 0.2022432699795 -3.71825690679839 31.3473640039601 0.157686019006654 -35.4098830214507 -2.082040580971 0.98654418846084 1.11567794652513 -29.9842649474415 -3.28625315382011 -30.9708091359023 -0.957991927518481 -66.7572470254108 73.5978178852974 -1137.41137506308 1166.21417560906
-0.0098500003144145 0.05444999679178 0.00564999974519014 16 0.0658735942840576 -0.120741887016532 -0.155106673856887 0.207306570033755 -3.9632942883061 30.1945748009241 0.351133156834763 -32.9172050559251 2.0746876803348 0.469908802693747 13.0503513520075 -26.3178378157163 -2.87362252103158 -26.78774661841 -12.6992181951728 -63.1117798568492 69.7276865266598 -996.274422496926 998.91012753647
-0.00705000027269125 0.05444999679178 0.00564999974519014 16 0.057509872118632 -0.210353537380239 -0.10387151192214 0.241547691084954 -1.93481226007778 27.5583098246527 0.138148051357615 -29.0872781846946 6.00496001957222 0.153781339683838 15.9699887554777 -21.9166625101212 -2.52209633677012 -22.070443849805 -15.8318407041201 -56.6455880093473 62.8209703262592 -772.78660053922 780.876600043628
-0.004250000230968 0.05444999679178 0.00564999974519014 16 0.0529835637410481 -0.286202971550714 -0.0610354574899732 0.297396580380761 1.00763349341946 23.0804782587691 0.113535865868651 -23.0006953170844 7.70862639492413 0.236301044809991 8.77888245722437 -16.6330136778872 -3.49400018579046 -16.8693147226972 -8.66534659135572 -46.0811735758535 49.8310803504165 -479.23877702401 511.113585166335
-0.00145000018924474 0.05444999679178 0.00564999974519014 16 0.0640431276957194 -0.340334351195294 -0.0564972728234716 0.350885928251707 -1.18118824362402 15.9521192300453 0.542231153244879 -13.7300395181143 5.70190793710692 0.326809308747676 0.970138353695959 -9.67067470549289 -5.37330449627156 -9.99748401424056 -0.42790720045108 -29.6821587481596 31.3235269268667 -189.628879418738 190.631424626575
0.0013499998524785 0.05444999679178 0.00564999974519014 16 0.0482076152165731 -0.364349877519708 -0.0586789317070119 0.372180096780808 -8.92862392264147 5.26254312350158 1.2993369412663 -1.28199116018517 0.347491476986901 -0.285107248327864 0.558833083585458 0.327152350453645 -6.80295431520945 0.612259598781509 0.740503857680843 -6.54453428368675 6.61469098068017 40.5835935086325 61.3881260875501
0.00414999989420176 0.05444999679178 0.00564999974519014 16 0.0144351303577424 -0.350683378608276 -0.0534442582137611 0.355026046588951 -20.7158950396707 -8.58409325144644 2.01209189831223 13.4076061591399 -6.01132586634425 -1.70763062792788 13.2424282793711 13.8420652606867 -6.83776147495997 15.5496958886145 -11.2303363810589 21.9916994105864 29.1813012120042 101.205625035052 419.368650627085
0.006949999935925 0.05444999679178 0.00564999974519014 16 -0.0715424911181133 -0.294415028572548 0.0216932650019104 0.30375834940163 -26.8897195848557 -22.8336352645596 2.56137896415097 32.9823066775325 -10.7627778161396 -3.1201110855897 28.0012274687792 29.3432829538774 -5.68969571782908 32.4633940394671 -25.4398485046283 55.8159419420922 69.4008445149131 21.0050489063876 1276.57783893979
0.00974999997764826 0.05444999679178 0.00564999974519014 16 -0.141447084744771 -0.169583762573699 0.113034449633754 0.248078046419777 -18.2216046589799 -33.3927347064628 3.00536362322126 52.9422272873714 -12.7007578722987 -3.58142714575132 27.5759147020871 43.6490067104395 -4.27971971259838 47.2304338561908 -24.5705510788658 86.3349619938341 101.430525607629 -1773.0923921434 2205.10307047527
0.0125500000193715 0.05444999679178 0.00564999974519014 16 -0.17717934012413 0.00385622333890448 0.184841087934134 0.256073459799988 0.853391528895062 -36.8439691416399 3.22723052134697 65.1614957811066 -12.4938926683388 -2.92833056038064 7.14053292240493 52.7388216579388 -3.3316680381306 55.6671522183194 -3.91330240105797 102.005464922746 116.272355467176 -2434.40958185303 2560.32080060375
0.0153500000610948 0.05444999679178 0.00564999974519014 16 -0.136381721893946 0.204345991130297 0.157160471121121 0.291644769952753 20.4142202079542 -32.1539051237806 3.14286593986397 58.3248036524267 -11.293934183373 -1.90918175922496 -22.8661944435318 53.6997396023079 -3.31429074217096 55.6089213615328 26.0090603833957 90.4787087762073 109.339929114802 -1828.01941404691 1788.97401104726
0.018150000102818 0.05444999679178 0.00564999974519014 16 -0.059216005007426 0.341972369887711 0.0542086825127869 0.351269438288373 26.7894917861956 -20.5318875448787 2.66958662721279 35.0353912183956 -9.85129196102344 -1.21211264681758 -39.3261517494617 45.3979126652556 -4.00077401860047 46.6100253120732 41.9957383766745 55.5672787632742 83.8084659837514 -509.843972769097 547.677650622043
0.0209500001445413 0.05444999679178 0.00564999974519014 16 0.0177570660909017 0.409452296264159 -0.0681036336541486 0.41545709914388 21.5960965599914 -4.98107159331499 2.00067490373752 8.12993489553258 -8.29746549998699 -0.885914192168145 -35.4430777590885 29.7359549230326 -4.380536480965 30.6218691152008 37.443752662826 13.1110064888476 50.1161847384054 7.744343708469 -99.6986362147098
0.0237500001862645 0.05444999679178 0.00564999974519014 16 0.0654206720987955 0.390348813670571 -0.148488779166752 0.422730384772981 12.7793333288937 10.7456945114716 1.3201795055584 -11.574955786665 -6.51938129348347 -0.587254860338868 -18.6326739646779 11.0115647610303 -3.36859595513149 11.5988196213692 19.9528534702363 -22.3206502981366 32.1070149335855 -42.1912505609737 51.0454123416835