TITLE="DynamicStudio Exported Data"
VARIABLES= "X (m)[m]" "Y (m)[m]" "Z (m)[m]" "Status[-]" "U[m/s]" "V[m/s]" "W[m/s]" "Length[m/s]" "dU/dX[1/s]" "dU/dY[1/s]" "dU/dZ[1/s]" "dV/dX[1/s]" "dV/dY[1/s]" "dV/dZ[1/s]" "dW/dX[1/s]" "dW/dY[1/s]" "dW/dZ[1/s]" "Vorticity X[1/s]" "Vorticity Y[1/s]" "Vorticity Z[1/s]" "Vorticity Magnitude[1/s]" "Lambda-2[1/s²]" "Q-Criterion[1/s²]"
ZONE T="DynamicStudio Data" I=26 J=26 F=POINT
-0.0350500006899238 0.0600499968752265 0.00564999974519014 16 0.268513549764951 -0.110182317614478 -0.368407254896592 0.469002745176097 -5.05960140938918 15.2979647205529 -0.752478637533028 -5.87107678698415 0.86716522080696 -3.4856629255579 5.14614748378405 -18.9489655383171 7.46709959577406 -15.4633026127592 -5.89862612131708 -21.1690415075371 26.8707245187151 -37.620482697327 -8.05466399094254
-0.0322500006482005 0.0600499968752265 0.00564999974519014 16 0.254778415163358 -0.126804316525037 -0.358320154466977 0.457585739091345 -8.5145044571791 14.9166008393098 -0.887501888825645 -8.82061755689828 0.99464625841333 -3.77487253449951 10.3539598272319 -19.7632553787265 6.1450356709102 -15.988382844227 -11.2414617160575 -23.7372183962081 30.7482419770048 -34.7158448621456 11.480303362319
-0.0294500006064773 0.0600499968752265 0.00564999974519014 16 0.218864368597666 -0.160194408129319 -0.316530511823172 0.416839807543134 -13.5065421893533 13.8981334981979 -1.24675052540991 -14.3328141231873 1.23131884789202 -4.32149508623142 14.0270990396068 -20.3253018128554 3.43420206340189 -16.0038067266239 -15.2738495650168 -28.2309476213852 35.8664009050154 -41.374938290469 70.0655079805301
-0.026650000564754 0.0600499968752265 0.00564999974519014 16 0.176200414498647 -0.207806987355386 -0.286845154725015 0.395614045317446 -16.1962319570647 12.2840959581359 -1.29218185908086 -16.9061366860545 1.51803117347869 -4.80640873559493 13.6209680914549 -19.6271107190464 -0.558672088576223 -14.8207019834515 -14.9131499505358 -29.1902326441904 35.9739479422457 22.1277997546512 114.555372873829
-0.0238500005230308 0.0600499968752265 0.00564999974519014 16 0.125172732671102 -0.254970484322015 -0.2461204135286 0.375836957782551 -20.3682514449907 9.52378274902502 -0.922161918288109 -16.4001237357214 2.03002673845705 -4.75803706133742 16.0853943425332 -16.5535209326033 -4.21268017139201 -11.7954838712659 -17.0075562608213 -25.9239064847464 33.1728704991318 118.563678339492 128.167268077317
-0.0210500004813075 0.0600499968752265 0.00564999974519014 16 0.0564669438203176 -0.297456604792848 -0.193421619601237 0.35927826320063 -25.9143941224393 4.86360772819572 -0.315580453219475 -12.3195438551635 3.1406850377926 -3.80721821858623 24.4125827575629 -10.2247683521188 -5.61879354791163 -6.41755013353255 -24.7281632107824 -17.1831515833592 30.7884345791109 45.9617952567156 75.2654580647223
-0.0182500004395843 0.0600499968752265 0.00564999974519014 16 -0.0291590686639149 -0.318411343639018 -0.0945309854768372 0.333424867486775 -33.0520735967378 -1.97819538186792 0.254148430291792 -1.8471773183475 4.52048104628527 -2.17125712178384 39.2915038894319 -0.681945277734681 -4.27073332303379 1.48931184404916 -39.0373554591401 0.131018063520412 39.0659741558437 27.4153263493774 -42.6810793889363
-0.015450000397861 0.0600499968752265 0.00564999974519014 16 -0.142657927672068 -0.302045398132953 0.0522740209537248 0.338105427533563 -35.7753648517037 -9.97316454651116 0.670252150906015 16.8903084048771 5.05588742377974 -0.74555905345054 50.3239065783149 10.5552933788811 -1.45376800661111 11.3008524323317 -49.6536544274088 26.8634729513882 57.5746545165826 1.44096943026004 6.37248910716948
-0.0126500003561378 0.0600499968752265 0.00564999974519014 16 -0.243739938735962 -0.222084617326012 0.214184826762648 0.393199535863405 -30.7107144086193 -16.9860489027554 0.745389977863952 41.19803331106 3.31986485231868 -0.40222295901088 49.9251161837789 20.3980930234304 1.04520590689674 20.8003159824413 -49.1797262059149 58.1840822138155 78.9726917213931 100.989146180916 540.198209500057
-0.0098500003144145 0.0600499968752265 0.00564999974519014 16 -0.3263902592659 -0.0779383874218911 0.351314441286571 0.485825925856249 -16.8777760461288 -21.0793282356532 0.0134936398811432 60.9253040137526 -1.07616060961854 -1.08989817730899 34.066512976755 25.9538235983513 2.78344640208318 27.0437217756603 -34.0530193368738 82.0046322494058 92.8209605843266 -1132.47465773165 1280.28120230992
-0.00705000027269125 0.0600499968752265 0.00564999974519014 16 -0.344739181200663 0.106953160848546 0.413067756385038 0.548551777898284 2.5606286522605 -21.0852222006545 -1.48423924486149 63.9547649153712 -6.60384865986651 -1.81038505794356 7.95645848857463 25.8377721988166 4.30083611927057 27.6481572567601 -9.44069773343612 85.0399871160257 89.9185563834433 -1370.51141960786 1372.78680294885
-0.004250000230968 0.0600499968752265 0.00564999974519014 16 -0.311477355957031 0.268928868439349 0.393294619194542 0.569228896878428 20.2161348275368 -17.1431418378159 -3.11531534595507 47.3890657793526 -10.9198944804997 -1.66615449133621 -19.4648526387586 21.108993334544 5.50607943868847 22.7751478258802 16.3495372928035 64.5322076171685 70.359225039257 -415.062786702001 617.356944848359
-0.00145000018924474 0.0600499968752265 0.00564999974519014 16 -0.223833838303884 0.367686874653057 0.29394555133651 0.521247745426786 33.9071510323415 -10.3613388673738 -3.93735123105155 18.7012568103317 -12.3009664505056 -0.694506345602839 -40.8604677346714 14.0641758103619 5.24189460164945 14.7586821559648 36.9231165036199 29.0625956777055 49.2521034966677 32.1995350788434 -261.177679492142
0.0013499998524785 0.0600499968752265 0.00564999974519014 16 -0.107374088764191 0.376523624209415 0.148228223095648 0.418653604603886 39.1414627119239 -2.68176885849156 -3.55601848259115 -8.30842617181326 -10.7506604683273 0.291400820548731 -49.7780523271891 6.5594468812117 2.74354073758605 6.26804606066297 46.222033844598 -5.6266573133217 46.9832319734531 127.296694652493 -544.109634198582
0.00414999989420176 0.0600499968752265 0.00564999974519014 16 0.0110009074211121 0.327787706480788 -0.00490677627540814 0.328008958623755 37.070732306995 3.73845859994896 -2.29899522689677 -25.2043878304927 -7.41258760068097 0.609889214274908 -45.5935991444312 -0.0916200819643803 -1.21855852255505 -0.701509296239288 43.2946039175345 -28.9428464304416 52.082657412665 33.1181887166774 -321.468263910981
0.006949999935925 0.0600499968752265 0.00564999974519014 16 0.113160280783971 0.242591156087195 -0.126094464557245 0.295897840733601 28.6677758830715 7.82882788985113 -0.864751032780252 -31.0631436270024 -3.78323262144184 0.24126821951331 -31.292750632336 -5.1359418598683 -4.71401574938856 -5.37721007938161 30.4279995995558 -38.8919715168536 49.6725577792821 30.6804927663612 -8.39628746294798
0.00974999997764826 0.0600499968752265 0.00564999974519014 16 0.179335935910543 0.158979566240062 -0.193094133477813 0.307768134761116 19.192347961179 9.77856360351058 0.0981690613559672 -29.5715794786804 -0.978073266301373 -0.327843425611293 -18.2090662573045 -8.37232626061033 -6.90798818776005 -8.04448283499904 18.3072353186605 -39.350143082191 44.1395778149758 44.9896927379858 143.614808710365
0.0125500000193715 0.0600499968752265 0.00564999974519014 16 0.223945156335831 0.0803373925223379 -0.236005267888152 0.335117913807254 10.8261539943837 10.4997384260847 0.404553783439738 -26.6942461890434 0.488635055738808 -0.70193787805983 -11.5346050727072 -10.543738863768 -8.22449712270215 -9.84180098570816 11.9391588561469 -37.1939846151281 40.2839552723536 -170.934823137851 189.779509278029
0.0153500000610948 0.0600499968752265 0.00564999974519014 16 0.240750351349513 0.0103248573552507 -0.263823281173827 0.357309470968297 4.3037737162172 10.6464788327784 0.407155632582277 -24.3927217423469 0.721424496406005 -0.817373397581019 -12.6425553496907 -12.5207455747803 -9.426453728144 -11.7033721771993 13.049710982273 -35.0392005751253 39.1791966990489 -243.518387413902 210.345008333728
0.018150000102818 0.0600499968752265 0.00564999974519014 16 0.248132586280505 -0.0566582719329745 -0.313919414732954 0.404135298011648 -2.18817237559097 10.2624433271152 0.567815373395087 -24.0869266191646 0.288471819800377 -0.771555707528807 -13.8020643740857 -14.329844010154 -10.7734723983347 -13.5582883026251 14.3698797474808 -34.3493699462798 39.6257472025519 -235.162147840292 263.806616191409
0.0209500001445413 0.0600499968752265 0.00564999974519014 16 0.227943468491236 -0.125759604187915 -0.347180684419194 0.433944847310227 -10.3348517344358 9.06858076502392 0.874744401775445 -24.5117102429553 -0.0425262044571271 -0.654770914564203 -4.43882050640123 -14.3187538655645 -11.3296067661427 -13.6639829510003 5.31356490817667 -33.5802910079792 36.6411564541733 -194.746525609833 334.804867180783
0.0237500001862645 0.0600499968752265 0.00564999974519014 16 0.18774969736735 -0.193756150925377 -0.335466648548221 0.430498858501535 -20.37328933041 6.70529251003231 1.05295276681203 -23.9451401544446 0.646332317491988 -0.474054441562281 16.4190714355877 -10.5687724150216 -10.3590254585049 -10.0947179734593 -15.3661186687757 -30.6504326644769 35.7417117165114 128.309708834176 329.444623335273
0.0265500002279878 0.0600499968752265 0.00564999974519014 16 0.10824550807476 -0.256881594655424 -0.240649515941611 0.368262723085039 -31.0702040024954 3.17749636509534 0.863904433963308 -21.1995799480646 2.65959465966662 -0.426899865881443 44.8445159712678 -2.96500092369194 -7.51606760367113 -2.5381010578105 -43.9806115373045 -24.3770763131599 50.34856500192 3.0934995971948 158.256365385747
0.029350000269711 0.0600499968752265 0.00564999974519014 16 0.00537327329317727 -0.307672178599751 -0.0588420490901141 0.31329447536036 -34.6225899486575 -0.867086884373147 0.468369424459647 -15.3717048155281 5.39981953230914 -0.738684933136569 58.9780823011543 6.29401977176832 -3.48878348397114 7.03270470490489 -58.5097128766947 -14.5046179311549 60.689615072996 29.7083881896231 -121.306655204311
0.0321500003114343 0.0600499968752265 0.00564999974519014 16 -0.093840667406718 -0.3385873161916 0.115030353998688 0.369701804007273 -25.4106072913871 -4.14712396849037 0.194423016042789 -8.30796993289016 7.56779896567261 -1.31333637110913 45.7409668635794 13.6659577171718 0.0625506191412667 14.9792940882809 -45.5465438475366 -4.16084596439979 48.1267030553543 64.6414044915077 -218.81772494138
0.0349500003531575 0.0600499968752265 0.00564999974519014 16 -0.141713463862737 -0.352717201425694 0.213549871373301 0.435999630257988 -16.6752320629249 -5.61747649818952 0.0963153017415968 -5.07668046456977 8.45797101376476 -1.74004004306246 32.7937212103613 17.1802362408179 1.97337198264449 18.9202762838804 -32.6974059086197 0.540796033619744 37.7808108457374 69.1860123873255 -159.036713508356
-0.0350500006899238 0.0572499968335032 0.00564999974519014 16 0.226532967090607 -0.112334315231516 -0.318723069329668 0.406842203415934 -4.61347692290728 27.0447768498458 -0.364003183129246 -6.11993465622986 0.467840491914327 -3.37302350186709 5.53157465972646 -35.22136873051 7.1114021431952 -31.8483452286429 -5.89557784285571 -33.1647115060757 46.3570169573628 -61.9844928347615 17.0836142879755
-0.0322500006482005 0.0572499968335032 0.00564999974519014 16 0.212432610591253 -0.129370038440926 -0.301704862560146 0.391011566301123 -7.44182675453994 25.9505122787937 -0.545731826225665 -9.05175720999867 0.739439088894493 -3.58061078959255 10.1142565531279 -34.838711234917 6.11215866815103 -31.2581004453244 -10.6599883793536 -35.0022694887924 48.1234149356006 -80.6013655674363 69.2047085161694
-0.0294500006064773 0.0572499968335032 0.00564999974519014 16 0.180655374129613 -0.163093875510967 -0.259313656046676 0.355639633116714 -11.827764480916 23.5385459814212 -0.93374689980015 -14.6218390300286 1.18071278567654 -3.99051222627003 12.9937634678001 -33.37832357763 3.73357112233194 -29.3878113513599 -13.9275103676003 -38.1603850114498 50.1381490013823 -160.429199526246 169.396390871223
-0.026650000564754 0.0572499968335032 0.00564999974519014 16 0.140787393252055 -0.211680786163379 -0.22857730326398 0.341873410631608 -13.9320774322651 20.1336262615383 -1.0767472126571 -17.206199292548 1.67422952381564 -4.37754381914741 11.288153443646 -30.2449037226173 0.0398424992347806 -25.8673599034699 -12.3649006563031 -37.3398255540863 47.0773156522914 -166.177576732695 202.365403681449
-0.0238500005230308 0.0572499968335032 0.00564999974519014 16 0.0973244206110637 -0.259471048111833 -0.196444067861206 0.339687414328807 -16.7280360692393 15.1493607640243 -0.874725547667578 -17.0920788759858 2.49558208224742 -4.30305447233699 11.229170255177 -24.0803949162665 -3.40031075157815 -19.7773404439295 -12.1038958028446 -32.2414396400102 39.7134475801539 -12.8636485744435 171.785839388427
-0.0210500004813075 0.0572499968335032 0.00564999974519014 16 0.0408294530709585 -0.305455646966147 -0.160972153095839 0.34768121976013 -20.4407808118942 7.58892375133761 -0.490909319683823 -13.6004528702966 4.09822680453308 -3.39685299934416 16.8324844149172 -13.7536566797596 -4.66573873246769 -10.3568036804154 -17.3233937346011 -21.1893766216342 29.2635102913533 63.6510992871433 57.2360047351654
-0.0182500004395843 0.0572499968335032 0.00564999974519014 16 -0.0253418397903442 -0.331356485319169 -0.0894575890122602 0.344154019937176 -25.7326752784331 -2.92348684082436 -0.132839228929756 -2.69410777242277 5.76613427091052 -1.83264488044043 29.4377578574007 0.499246670122628 -3.15308226818974 2.33189155056306 -29.5705970863304 0.229379068401591 29.6632861463915 40.8153953817013 -88.4726721084475
-0.015450000397861 0.0572499968335032 0.00564999974519014 16 -0.113846649726232 -0.317189059148853 0.0227981772025426 0.33777169179992 -28.4033899176183 -14.9498703716667 0.140710385814373 17.6472610308939 5.67764330647076 -0.513316240907818 40.5898877743413 16.3412652872555 -0.169734254487954 16.8545815281633 -40.4491773885269 32.5971314025607 54.6148866663095 0.287514864776652 109.094103938752
-0.0126500003561378 0.0572499968335032 0.00564999974519014 16 -0.19489487528801 -0.234406514459406 0.155038105406954 0.342004737631972 -25.1031919056695 -25.5917396899538 0.172876218152606 44.5328801843049 2.16451799769607 -0.289552117436126 42.9912262636787 29.7282407964795 2.48739377598791 30.0177929139157 -42.8183500455261 70.1246198742587 87.4753754181896 -553.716214575519 1029.45576639315
-0.0098500003144145 0.0572499968335032 0.00564999974519014 16 -0.26379181543986 -0.0752769843721762 0.274962133386483 0.388403039465028 -14.6278933704 -32.0847184243331 -0.429233103980699 65.4580537221913 -4.23773676334175 -1.02141794397106 31.5728007252446 37.3039327764498 4.23790990187958 38.3253507204208 -32.0020338292253 97.5427721465244 109.578990117079 -2213.567235913 2133.8965406136
-0.00705000027269125 0.0572499968335032 0.00564999974519014 16 -0.28317045211792 0.125361963055329 0.337555134072124 0.458087977655169 0.819304786121978 -32.591312578923 -1.63835518813882 67.70954968417 -10.6827085571632 -1.67871494735716 10.228409830131 37.5643774862487 5.46130322897563 39.2430924336058 -11.8667650182698 100.300862263093 108.356372154439 -2201.65958431515 2223.94131550773
-0.004250000230968 0.0572499968335032 0.00564999974519014 16 -0.260646248658498 0.303060206129837 0.333699585883878 0.52070852604723 15.1467841877239 -27.0946648605844 -2.8880267904993 48.9185196029385 -14.5282652093368 -1.40632708680803 -14.1633241700173 31.5671572973753 6.03260050627987 32.9734843841833 11.275297379518 76.0131844635229 83.6204951893739 -1155.77890759915 1112.59536298716
-0.00145000018924474 0.0572499968335032 0.00564999974519014 16 -0.193570931752523 0.404014599137008 0.253259436630372 0.514623983290432 26.7427220503509 -17.1214862289283 -3.35545157005072 17.9715665934945 -14.8676714927501 -0.357293682553293 -34.0722655196155 21.8256991216388 4.86917173624115 22.1829928041921 30.7168139495648 35.0930528224227 51.6442657548771 7.29461287781908 -138.610068201763
0.0013499998524785 0.0572499968335032 0.00564999974519014 16 -0.100198575258255 0.408950526345094 0.129948218026111 0.440643650640601 32.0756762697659 -5.45112747440711 -2.73460515558243 -10.3163145540313 -12.6468615544209 0.610867909403796 -43.168526626995 10.9295475161056 1.53802605157025 10.3186796067018 40.4339214714126 -4.86518707962421 42.0124648134559 199.0243312319 -556.735544879898
0.00414999989420176 0.0572499968335032 0.00564999974519014 16 -0.000406974951426164 0.348374821480441 -0.00586047151436409 0.348424349029328 31.620916637372 4.92439881789374 -1.3955966671964 -27.868388538647 -9.08766341993064 0.855923077108192 -39.9857570855085 0.929202078047478 -2.86872356132608 0.0732790009392855 38.5901604183121 -32.7927873565407 50.6416108900017 52.5577495156446 -271.366177097763
0.006949999935925 0.0572499968335032 0.00564999974519014 16 0.0903427934646606 0.252805363025206 -0.111201124272872 0.290582280851492 25.373414011341 12.3051199292799 -0.047071898275543 -33.4840706211832 -5.21252071067534 0.40224055961272 -27.0117751565846 -7.27817486399203 -6.27937651955785 -7.68041542360475 26.9647032583091 -45.7891905504631 53.6910977179125 55.4462889168376 154.824300271811
0.00974999997764826 0.0572499968335032 0.00564999974519014 16 0.151783349514008 0.160578103751468 -0.170530856526069 0.27911339204994 17.6719051887284 16.4700126689079 0.715450346452516 -31.4004887697531 -1.89773754380208 -0.250997709949105 -15.0797668741094 -13.6096549226912 -7.81896011012046 -13.3586572127421 15.795217220562 -47.870501438661 52.1490893262877 -251.501670767399 367.665054530254
0.0125500000193715 0.0572499968335032 0.00564999974519014 16 0.194747458696365 0.0776884744902297 -0.206537446008685 0.294312399230991 10.3320894849391 18.2441283432784 0.786948848674758 -27.3591025616237 0.107125345837545 -0.672820000760344 -8.73411368565098 -18.8156414918899 -8.07799046292982 -18.1428214911296 9.52106253432574 -45.6032309049022 49.9946724402446 -451.441055078022 410.135690093228
0.0153500000610948 0.0572499968335032 0.00564999974519014 16 0.210722451607386 0.00805619395260389 -0.228353218817695 0.310828001339698 4.59408877697075 18.3989643230715 0.553007025368771 -24.2572815296484 0.558945025496966 -0.740069793246475 -10.3029507931784 -23.2967351984543 -8.13813748869235 -22.5566654052079 10.8559578185471 -42.6562458527199 49.4591779613073 -428.175065118318 395.396997107939
0.018150000102818 0.0572499968335032 0.00564999974519014 16 0.218816595872243 -0.0580428209050054 -0.271066709965756 0.353166862742509 -1.27556657971827 17.3240553016664 0.491980056797051 -23.5859025469492 0.0667982994516198 -0.557971459750622 -12.3954815003771 -26.439889816884 -8.63105706886549 -25.8819183571334 12.8874615571742 -40.9099578486156 50.0957584472824 -393.854499301667 410.296848170525
0.0209500001445413 0.0572499968335032 0.00564999974519014 16 0.201233712434769 -0.123997205128738 -0.300637081990808 0.38243034524991 -8.61508017725176 15.0896321359734 0.651393874288121 -24.5581261178293 -0.277477223137234 -0.309229016193292 -6.28253172470112 -26.0064581871559 -8.95495884578399 -25.6972291709626 6.93392559898924 -39.6477582538027 47.7532370193819 -370.512533215128 448.646514346433
0.0237500001862645 0.0572499968335032 0.00564999974519014 16 0.167735675573349 -0.194773862501606 -0.301649148242238 0.396313415126349 -17.4639413812737 11.2482753813169 0.780668288721896 -25.1103704875013 0.704549477477191 -0.106705469006188 10.5762935422881 -19.569962892404 -8.38112757757474 -19.4632574233979 -9.79562525356621 -36.3586458688182 42.3877788171531 -45.5669671652398 400.261954014185
0.0265500002279878 0.0572499968335032 0.00564999974519014 16 0.0985754875342051 -0.262877498891515 -0.227883783621971 0.361597462662461 -26.9214040180406 5.36605949603807 0.620094083233969 -23.4764074039675 3.47551981904534 -0.147548638594208 35.4843223452768 -6.90158187022335 -6.38429726568274 -6.75403323162914 -34.8642282620428 -28.8424669000056 45.7495275831313 10.4073323615965 159.07348270188
0.029350000269711 0.0572499968335032 0.00564999974519014 16 0.00817462722460438 -0.32372071022323 -0.0796445702619773 0.33347440730873 -29.9419389685605 -2.11519705202433 0.237233742552214 -18.0314177087564 7.49865187729571 -0.568950031298896 49.2020999163743 9.14825390872754 -3.39339197121369 9.71720394002644 -48.9648661738221 -15.916220656732 52.3956892485074 71.4333136303816 -192.972807171597
0.0321500003114343 0.0572499968335032 0.00564999974519014 16 -0.081007212003072 -0.360576738737679 0.0748279593813155 0.377063623836061 -22.0686974765933 -9.04441215220947 -0.109984874860373 -10.0552205751269 11.1829556016395 -1.17570100243131 39.3067828925738 22.9011076160454 -0.692444640154191 24.0768086184767 -39.4167677674341 -1.0108084229174 46.1995241117312 175.500367053806 -298.951042835592
0.0349500003531575 0.0572499968335032 0.00564999974519014 16 -0.125522776444753 -0.376774619555411 0.160555100657706 0.428360854531236 -14.5103983311059 -12.6178157010432 -0.283862941822502 -6.29631196538068 13.0400260614492 -1.57533965024596 28.0223860289478 29.7543104729735 0.752299952512848 31.3296501232195 -28.3062489707703 6.32150373566255 42.6937011410182 201.186806296937 -214.940175374849
-0.0350500006899238 0.05444999679178 0.00564999974519014 16 0.11656499505043 -0.111714160564976 -0.172692268628937 0.236410810637021 -3.39932203667569 44.5721863577492 0.151633551775248 -6.63905197001671 0.858543633344772 -3.15352568756318 5.00049799060231 -56.0438887259206 6.36637448676971 -52.8903630383574 -4.84886443882707 -51.2112383277659 73.7800306298297 -144.167819470131 99.328962551506
-0.0322500006482005 0.05444999679178 0.00564999974519014 16 0.107210234800974 -0.130615103316754 -0.15988983513865 0.232635119965131 -4.97857246165946 42.7984783405103 -0.0280073529282166 -9.49697379042783 1.20520072138938 -3.23060503056643 8.42555428441445 -54.5608183964255 5.73730763329799 -51.330213365859 -8.45356163734267 -52.2954521309381 73.763594151317 -212.586761468438 202.778376548162
-0.0294500006064773 0.05444999679178 0.00564999974519014 16 0.0883050696055094 -0.165341538286108 -0.128398731116516 0.227204409625302 -7.89065325021005 38.8100791142964 -0.389196327631578 -15.1265793437364 1.71388391874438 -3.41354781011056 9.79621948545813 -51.134959802657 3.94127962347648 -47.7214119925465 -10.1854158130897 -53.9366584580328 72.7340290611374 -379.592062108826 378.456724834111
-0.026650000564754 0.05444999679178 0.00564999974519014 16 0.0613097540537517 -0.216242106804081 -0.110509645656372 0.250463403475031 -8.61253699551739 32.9583471667256 -0.662860335395387 -17.5608239305646 2.07973213232983 -3.6134729271194 6.03504296468115 -45.8177251963628 1.02557867916626 -42.2042522692434 -6.69790330007654 -50.5191710972902 66.1683267627375 -397.217257614516 392.603337348436
-0.0238500005230308 0.05444999679178 0.00564999974519014 16 0.0372715898354847 -0.265287688051661 -0.10290304827077 0.286976943645437 -8.62739344709313 24.5224296053456 -0.772314622488329 -17.8744982178139 2.39542355374278 -3.46433207034554 1.59664729255806 -37.0966005611298 -1.69877424408957 -33.6322684907843 -2.36896191504639 -42.3969278231595 54.1686344043612 -303.227351085224 300.964743777687
-0.0210500004813075 0.05444999679178 0.00564999974519014 16 0.0085764320691426 -0.318735264762266 -0.107773336235744 0.336572155998519 -8.7818772243464 12.3233204083383 -0.830052390388719 -15.0648759385369 3.03962124152549 -2.62553443040615 2.05698197018414 -23.0153133902848 -2.51049907025417 -20.3897789598786 -2.88703436057286 -27.3881963468752 34.2664756367915 -116.60881903827 114.651545925455
-0.0182500004395843 0.05444999679178 0.00564999974519014 16 -0.017531269788742 -0.352363569815255 -0.0901515630539507 0.364135599844929 -10.673254740755 -3.88259312472566 -0.89070627114258 -3.21192364998763 3.35395272095323 -1.20703175258314 10.191834694219 -3.24679113225214 -0.769702799766404 -2.039759379669 -11.0825409653615 0.670669474738029 11.2886283542426 26.0773021857979 -37.4755461168349
-0.015450000397861 0.05444999679178 0.00564999974519014 16 -0.0574175608158112 -0.338031353806922 -0.0402810624731743 0.345231134807603 -13.3419251298759 -21.9770949193038 -0.902862035121148 19.7533556459739 1.85416494787785 -0.075290753977355 21.3817350015539 19.3652661865841 2.3355969720945 19.4405569405614 -22.2845970366751 41.7304505652777 51.1465445912751 -285.506561716362 403.31524646617
-0.0126500003561378 0.05444999679178 0.00564999974519014 16 -0.0979361295700074 -0.240585918472771 0.0445832774809242 0.263554051901087 -13.5623505653777 -37.9375317290509 -0.94349381127998 50.1884823263351 -2.39440650045762 0.000475992988983807 28.8260444168793 39.3516252969468 5.14042131238917 39.3511493039578 -29.7695382281592 88.126014055386 100.999666886333 -1960.57840605536 1881.6549303589
-0.0098500003144145 0.05444999679178 0.00564999974519014 16 -0.137770204544067 -0.0517901051774 0.135805324742881 0.200264651106778 -9.80167736787035 -47.8116103374931 -1.27996654959001 71.7734413120182 -7.96314147127685 -0.737633593756834 25.829890540514 51.6840253485066 6.84885935632279 52.4216589422634 -27.109857090104 119.585051649511 133.355012113235 -3528.60243532227 3459.1724756365
-0.00705000027269125 0.05444999679178 0.00564999974519014 16 -0.155378249486287 0.169534699142435 0.197586841254573 0.303191316603393 -2.27648523747482 -49.0354421618361 -1.91243530195303 71.8155058144657 -11.9395133975779 -1.27086244886141 13.6588146142148 53.7360860393545 7.46552667078368 55.0069484882159 -15.5712499161678 120.850947976302 133.69061235819 -3520.21831454948 3536.9680638659
-0.004250000230968 0.05444999679178 0.00564999974519014 16 -0.151350337664286 0.359111632493247 0.21404616213035 0.444616518840439 5.27375959989407 -41.5632752687481 -2.40588856912536 49.5111874097286 -12.7925806824901 -0.82942533128056 -4.28222738929852 46.4218046634253 6.7551609393828 47.2512299947058 1.87633882017316 91.0744626784766 102.619477369327 -1938.04626133656 1967.79212830935
-0.00145000018924474 0.05444999679178 0.00564999974519014 16 -0.124127901395162 0.453588788376849 0.167993811171036 0.499372051117917 12.341382951134 -27.2620902133575 -2.18593459866967 16.1083019907587 -11.1825776031311 0.284438123616515 -20.4930984860519 32.7029990248793 3.9070293760279 32.4185609012628 18.3071638873822 43.3703922041162 57.1586061800602 -218.461061188161 251.566443316926
0.0013499998524785 0.05444999679178 0.00564999974519014 16 -0.0763589398066202 0.451646679954429 0.0860708289207347 0.466072525250472 17.2322161647938 -9.68764976368963 -1.13041177481508 -12.9306952400978 -8.92574225265806 1.19402789063094 -29.3665891912795 16.2180461611333 -0.873732472248979 15.0240182705024 28.2361774164644 -3.24304547640821 32.1484087327584 185.636398142313 -338.897140258949
0.00414999989420176 0.05444999679178 0.00564999974519014 16 -0.0184771239757537 0.378792596428345 -0.0143084594018486 0.379512802458358 19.4091884276746 6.99201225867895 0.317774016464577 -31.0222424355207 -6.71670580420804 1.32042597777222 -27.8170734815345 0.247770559501903 -5.95400459251286 -1.07265541827031 28.1348474979991 -38.0142546941997 47.3054309074285 46.0382580468908 19.4833714864557
0.006949999935925 0.05444999679178 0.00564999974519014 16 0.0420100792249043 0.272166518687736 -0.0863768291364734 0.288618116657212 17.4543473279136 19.7420860404175 1.47114350441381 -36.6060956582343 -4.31596957953844 0.728564927897599 -17.4375856093297 -13.2877256496875 -9.01881414912723 -14.0162905775851 18.9087291137435 -56.3481816986518 61.0664721348508 -478.690371009022 564.18983253873
0.00974999997764826 0.05444999679178 0.00564999974519014 16 0.0856320683161418 0.167827030134698 -0.119388464722239 0.223052389981965 13.6329016257674 27.5352635471779 1.8421630322327 -34.2457942455015 -1.66342223361207 -0.0711717358675282 -7.64485875239434 -23.9653432599584 -9.15118563751222 -23.8941715240909 9.48702178462704 -61.7810577926794 66.9166206345409 -878.451162098141 823.132191457204
0.0125500000193715 0.05444999679178 0.00564999974519014 16 0.121193166971207 0.0768520243295158 -0.129026920619848 0.192981770146031 8.80563379049421 31.3266071302133 1.45717216701692 -28.7174374843295 0.535355275202489 -0.582876462530909 -1.98296720079396 -32.9454112973318 -7.28354074472884 -32.3625348348009 3.44013936781088 -60.0440446145428 68.2968192046809 -874.527868579447 819.984969722714
0.0153500000610948 0.05444999679178 0.00564999974519014 16 0.135919355948766 0.00681351520431538 -0.127080173304033 0.186198457990258 4.95316053026982 32.339155091566 0.78094943726352 -24.1385436914039 1.32313268000428 -0.555620167282416 -4.71084975259031 -40.8075651162125 -5.18022825520615 -40.25194494893 5.49179918985383 -56.4776987829699 69.5708947070055 -755.516698067741 735.666594568999
0.018150000102818 0.05444999679178 0.00564999974519014 16 0.150140422185262 -0.0571889614678609 -0.15531711127803 0.223463931638851 0.593688962856353 31.1857368170975 0.330240061641421 -22.6221309643418 0.732769985197746 -0.106867832620499 -9.30915629683836 -46.3428367419096 -4.22646041689844 -46.2359689092891 9.63939635847978 -53.8078677814393 71.5958757074839 -700.476932683379 698.438331539013
0.0209500001445413 0.05444999679178 0.00564999974519014 16 0.13985431989034 -0.119463988177789 -0.181698001754315 0.258544075748882 -4.64550604596335 27.5813303089275 0.237750480222727 -24.3673705532511 -0.077481639398973 0.39640978871937 -10.3586240322969 -45.7865012675807 -4.37537179844291 -46.1829110563 10.5963745125197 -51.9487008621786 70.3122460721588 -691.933013200359 713.722249668264
0.0237500001862645 0.05444999679178 0.00564999974519014 16 0.121364638010661 -0.194871940476005 -0.213286478618199 0.313361724697982 -10.4612198060333 20.4503913570551 0.293143594792894 -26.8766748222024 0.516040430109472 0.658068257287137 -2.63146793477975 -34.9391427776688 -4.82854069380349 -35.597211034956 2.92461152957265 -47.3270661792575 59.2922084189982 -575.171385774705 616.024548214787