TITLE="DynamicStudio Exported Data"
VARIABLES= "X (m)[m]" "Y (m)[m]" "Z (m)[m]" "Status[-]" "U[-]" "V[-]" "W[-]" "Length[-]"
ZONE T="DynamicStudio Data" F=POINT
-0.0350500006899238 0.0600499968752265 0.00564999974519014 16 0.0941409394145012 -0.319960713386536 -0.200486019253731 0.389142662286758
-0.0322500006482005 0.0600499968752265 0.00564999974519014 16 0.0564363114535809 -0.328820735216141 -0.157525151968002 0.368947565555573
-0.0294500006064773 0.0600499968752265 0.00564999974519014 16 -0.0248332805931568 -0.335776150226593 -0.0670885071158409 0.343312084674835
-0.026650000564754 0.0600499968752265 0.00564999974519014 16 -0.123895697295666 -0.310422569513321 0.0540313869714737 0.338573038578033
-0.0238500005230308 0.0600499968752265 0.00564999974519014 16 -0.208930417895317 -0.232473388314247 0.160830900073051 0.351514399051666
-0.0210500004813075 0.0600499968752265 0.00564999974519014 16 -0.260799914598465 -0.104072317481041 0.237519606947899 0.367781460285187
-0.0182500004395843 0.0600499968752265 0.00564999974519014 16 -0.265794783830643 0.0447020754218102 0.26377609372139 0.377124607563019
-0.015450000397861 0.0600499968752265 0.00564999974519014 16 -0.226800233125687 0.178873375058174 0.248235657811165 0.380860835313797
-0.0126500003561378 0.0600499968752265 0.00564999974519014 16 -0.152468591928482 0.266779959201813 0.195477291941643 0.364183455705643
-0.0098500003144145 0.0600499968752265 0.00564999974519014 16 -0.0650347918272018 0.297142565250397 0.122851431369781 0.328048318624496
-0.00705000027269125 0.0600499968752265 0.00564999974519014 16 0.0181454550474882 0.279240906238556 0.0467475056648254 0.283707708120346
-0.004250000230968 0.0600499968752265 0.00564999974519014 16 0.0837092474102974 0.230081796646118 -0.0211176406592131 0.245745450258255
-0.00145000018924474 0.0600499968752265 0.00564999974519014 16 0.131943106651306 0.172091066837311 -0.0757848620414734 0.229712128639221
0.0013499998524785 0.0600499968752265 0.00564999974519014 16 0.16840735077858 0.113241471350193 -0.128768175840378 0.240345388650894
0.00414999989420176 0.0600499968752265 0.00564999974519014 16 0.198427736759186 0.0550572760403156 -0.184210628271103 0.276294082403183
0.006949999935925 0.0600499968752265 0.00564999974519014 16 0.221499189734459 -0.00948628410696983 -0.245351359248161 0.33067986369133
0.00974999997764826 0.0600499968752265 0.00564999974519014 16 0.230217054486275 -0.0847294256091118 -0.29475724697113 0.383485078811646
0.0125500000193715 0.0600499968752265 0.00564999974519014 16 0.215615078806877 -0.168318182229996 -0.309620589017868 0.413141340017319
0.0153500000610948 0.0600499968752265 0.00564999974519014 16 0.170078054070473 -0.24967522919178 -0.272451847791672 0.406809866428375
0.018150000102818 0.0600499968752265 0.00564999974519014 16 0.0912486389279366 -0.312721341848373 -0.175702467560768 0.370124727487564
0.0209500001445413 0.0600499968752265 0.00564999974519014 16 -0.0130580058321357 -0.336346119642258 -0.0354767665266991 0.338463932275772
0.0237500001862645 0.0600499968752265 0.00564999974519014 16 -0.128930851817131 -0.308295011520386 0.12714184820652 0.357538849115372
0.0265500002279878 0.0600499968752265 0.00564999974519014 16 -0.231093749403954 -0.220509365200996 0.277226746082306 0.422946065664291
0.029350000269711 0.0600499968752265 0.00564999974519014 16 -0.304561883211136 -0.0979823917150497 0.388151943683624 0.503011345863342
0.0321500003114343 0.0600499968752265 0.00564999974519014 16 -0.341552168130875 0.0210798587650061 0.449317336082458 0.564790487289429
0.0349500003531575 0.0600499968752265 0.00564999974519014 16 -0.352438777685165 0.0771415829658508 0.468224406242371 0.591098964214325
-0.0350500006899238 0.0572499968335032 0.00564999974519014 16 0.0842675343155861 -0.343720763921738 -0.190133988857269 0.401741087436676
-0.0322500006482005 0.0572499968335032 0.00564999974519014 16 0.0519255697727203 -0.353035241365433 -0.152774393558502 0.388162523508072
-0.0294500006064773 0.0572499968335032 0.00564999974519014 16 -0.016631867736578 -0.360598683357239 -0.0736558958888054 0.368419885635376
-0.026650000564754 0.0572499968335032 0.00564999974519014 16 -0.0986187905073166 -0.332801431417465 0.0311281941831112 0.348498821258545
-0.0238500005230308 0.0572499968335032 0.00564999974519014 16 -0.168588772416115 -0.250389724969864 0.125067099928856 0.326739907264709
-0.0210500004813075 0.0572499968335032 0.00564999974519014 16 -0.211916819214821 -0.113190121948719 0.194497883319855 0.309111893177032
-0.0182500004395843 0.0572499968335032 0.00564999974519014 16 -0.218874603509903 0.0453717671334743 0.22350737452507 0.316101610660553
-0.015450000397861 0.0572499968335032 0.00564999974519014 16 -0.189521327614784 0.189681068062782 0.217019274830818 0.344955950975418
-0.0126500003561378 0.0572499968335032 0.00564999974519014 16 -0.130146488547325 0.284128129482269 0.176811158657074 0.359066963195801
-0.0098500003144145 0.0572499968335032 0.00564999974519014 16 -0.0569476224482059 0.316471576690674 0.116034828126431 0.34184992313385
-0.00705000027269125 0.0572499968335032 0.00564999974519014 16 0.0124945463612676 0.295752257108688 0.0515683516860008 0.300474315881729
-0.004250000230968 0.0572499968335032 0.00564999974519014 16 0.0674769207835197 0.241105034947395 -0.0066156261600554 0.250456660985947
-0.00145000018924474 0.0572499968335032 0.00564999974519014 16 0.106936074793339 0.178277552127838 -0.0529873184859753 0.214536398649216
0.0013499998524785 0.0572499968335032 0.00564999974519014 16 0.1385807543993 0.116685807704926 -0.101046591997147 0.207438215613365
0.00414999989420176 0.0572499968335032 0.00564999974519014 16 0.165636450052261 0.0575032345950603 -0.152590334415436 0.232434645295143
0.006949999935925 0.0572499968335032 0.00564999974519014 16 0.188446626067162 -0.00807142723351717 -0.211586877703667 0.283454209566116
0.00974999997764826 0.0572499968335032 0.00564999974519014 16 0.198203474283218 -0.0867147073149681 -0.259310752153397 0.337707161903381
0.0125500000193715 0.0572499968335032 0.00564999974519014 16 0.188854619860649 -0.175374865531921 -0.278735160827637 0.379625737667084
0.0153500000610948 0.0572499968335032 0.00564999974519014 16 0.151993170380592 -0.264608114957809 -0.251815944910049 0.395639538764954
0.018150000102818 0.0572499968335032 0.00564999974519014 16 0.0868931636214256 -0.334526181221008 -0.172101333737373 0.386104971170425
0.0209500001445413 0.0572499968335032 0.00564999974519014 16 -0.00152139738202095 -0.363451510667801 -0.0506943352520466 0.366973072290421
0.0237500001862645 0.0572499968335032 0.00564999974519014 16 -0.100260905921459 -0.334654539823532 0.0957599207758904 0.362237304449081
0.0265500002279878 0.0572499968335032 0.00564999974519014 16 -0.188393250107765 -0.241049736738205 0.232985094189644 0.384550452232361
0.029350000269711 0.0572499968335032 0.00564999974519014 16 -0.252202123403549 -0.108907625079155 0.337041646242142 0.434814721345901
0.0321500003114343 0.0572499968335032 0.00564999974519014 16 -0.285185635089874 0.0194988194853067 0.393888503313065 0.486681818962097
0.0349500003531575 0.0572499968335032 0.00564999974519014 16 -0.295608043670654 0.0801257416605949 0.412385523319244 0.513678967952728
-0.0350500006899238 0.05444999679178 0.00564999974519014 16 0.0479369163513184 -0.380233854055405 -0.145076021552086 0.409783840179443
-0.0322500006482005 0.05444999679178 0.00564999974519014 16 0.0312272757291794 -0.390152126550674 -0.123950272798538 0.41055753827095
-0.0294500006064773 0.05444999679178 0.00564999974519014 16 -0.0037039692979306 -0.398169159889221 -0.0781607329845428 0.40578505396843
-0.026650000564754 0.05444999679178 0.00564999974519014 16 -0.0431119315326214 -0.366119265556335 -0.0161954741925001 0.369004398584366
-0.0238500005230308 0.05444999679178 0.00564999974519014 16 -0.0763194933533669 -0.276445806026459 0.0424523279070854 0.289912313222885
-0.0210500004813075 0.05444999679178 0.00564999974519014 16 -0.0990095287561417 -0.126125350594521 0.0940026119351387 0.185868188738823
-0.0182500004395843 0.05444999679178 0.00564999974519014 16 -0.108548574149609 0.0475931577384472 0.128332987427711 0.174691900610924
-0.015450000397861 0.05444999679178 0.00564999974519014 16 -0.100615337491035 0.207515805959702 0.143596783280373 0.271673142910004
-0.0126500003561378 0.05444999679178 0.00564999974519014 16 -0.0756816416978836 0.312682181596756 0.133468270301819 0.348298192024231
-0.0098500003144145 0.05444999679178 0.00564999974519014 16 -0.0386300757527351 0.348394513130188 0.103260435163975 0.365422666072845
-0.00705000027269125 0.05444999679178 0.00564999974519014 16 -0.00317733222618699 0.324037343263626 0.0670620277523994 0.330919325351715
-0.004250000230968 0.05444999679178 0.00564999974519014 16 0.0258100777864456 0.260653972625732 0.0317791365087032 0.263849526643753
-0.00145000018924474 0.05444999679178 0.00564999974519014 16 0.0454613491892815 0.188835382461548 0.00280018406920135 0.194250822067261
0.0013499998524785 0.05444999679178 0.00564999974519014 16 0.0655619502067566 0.119830049574375 -0.0344066470861435 0.140859603881836
0.00414999989420176 0.05444999679178 0.00564999974519014 16 0.0859053209424019 0.0566936545073986 -0.0776956304907799 0.128959313035011
0.006949999935925 0.05444999679178 0.00564999974519014 16 0.108451224863529 -0.0113476794213057 -0.131685122847557 0.17097195982933
0.00974999997764826 0.05444999679178 0.00564999974519014 16 0.122200474143028 -0.0939744636416435 -0.178217947483063 0.235639110207558
0.0125500000193715 0.05444999679178 0.00564999974519014 16 0.124801523983479 -0.189314797520638 -0.207193166017532 0.307155549526215
0.0153500000610948 0.05444999679178 0.00564999974519014 16 0.107911817729473 -0.289129853248596 -0.20284067094326 0.36930388212204
0.018150000102818 0.05444999679178 0.00564999974519014 16 0.0731870606541634 -0.368792444467545 -0.158754914999008 0.408126592636108
0.0209500001445413 0.05444999679178 0.00564999974519014 16 0.0228687338531017 -0.405974626541138 -0.0819297954440117 0.414790153503418
0.0237500001862645 0.05444999679178 0.00564999974519014 16 -0.034127239137888 -0.377830147743225 0.0208813585340977 0.379942536354065
0.0265500002279878 0.05444999679178 0.00564999974519014 16 -0.0859443694353104 -0.277365237474442 0.120719641447067 0.31446960568428
0.029350000269711 0.05444999679178 0.00564999974519014 16 -0.125669285655022 -0.131424978375435 0.203836843371391 0.273157000541687
0.0321500003114343 0.05444999679178 0.00564999974519014 16 -0.148291155695915 0.011748380959034 0.250894457101822 0.291678458452225
0.0349500003531575 0.05444999679178 0.00564999974519014 16 -0.156271368265152 0.0793854966759682 0.268598616123199 0.320730447769165
-0.0350500006899238 0.0516499967500567 0.00564999974519014 16 -0.000863974040839821 -0.392111390829086 -0.0882558822631836 0.40192186832428
-0.0322500006482005 0.0516499967500567 0.00564999974519014 16 0.000575954851228744 -0.399572610855103 -0.0845910310745239 0.408428996801376
-0.0294500006064773 0.0516499967500567 0.00564999974519014 16 0.00653169583529234 -0.403099149465561 -0.0786038488149643 0.410743415355682
-0.026650000564754 0.0516499967500567 0.00564999974519014 16 0.0181494895368814 -0.366187930107117 -0.0667175725102425 0.372658342123032
-0.0238500005230308 0.0516499967500567 0.00564999974519014 16 0.0297529082745314 -0.273559957742691 -0.0511722899973392 0.279890835285187
-0.0210500004813075 0.0516499967500567 0.00564999974519014 16 0.0341066122055054 -0.122508436441422 -0.0250525157898664 0.129611760377884
-0.0182500004395843 0.0516499967500567 0.00564999974519014 16 0.0260961875319481 0.0514334142208099 0.00813007913529873 0.0582452192902565
-0.015450000397861 0.0516499967500567 0.00564999974519014 16 0.0118338456377387 0.212040349841118 0.0440394952893257 0.216888517141342
-0.0126500003561378 0.0516499967500567 0.00564999974519014 16 -0.00232427474111319 0.320133358240128 0.0684752017259598 0.327382981777191
-0.0098500003144145 0.0516499967500567 0.00564999974519014 16 -0.0102051235735416 0.358443170785904 0.0787841007113457 0.367141097784042
-0.00705000027269125 0.0516499967500567 0.00564999974519014 16 -0.0174082349985838 0.334729373455048 0.0807376876473427 0.344768583774567
-0.004250000230968 0.0516499967500567 0.00564999974519014 16 -0.0229746010154486 0.268383473157883 0.0787311196327209 0.280635178089142
-0.00145000018924474 0.0516499967500567 0.00564999974519014 16 -0.0290362499654293 0.191780984401703 0.075032614171505 0.207973420619965
0.0013499998524785 0.0516499967500567 0.00564999974519014 16 -0.0254985839128494 0.117547325789928 0.0566469803452492 0.132952749729156
0.00414999989420176 0.0516499967500567 0.00564999974519014 16 -0.0154955238103867 0.0511321015655994 0.026184219866991 0.0594997182488441
0.006949999935925 0.0516499967500567 0.00564999974519014 16 0.00279507809318602 -0.0198015533387661 -0.0183545891195536 0.0271441508084536
0.00974999997764826 0.0516499967500567 0.00564999974519014 16 0.0187778808176517 -0.103651784360409 -0.0629780143499374 0.122729502618313
0.0125500000193715 0.0516499967500567 0.00564999974519014 16 0.033293753862381 -0.200364857912064 -0.101457923650742 0.22704242169857
0.0153500000610948 0.0516499967500567 0.00564999974519014 16 0.0407397225499153 -0.301488727331161 -0.124772891402245 0.328821301460266
0.018150000102818 0.0516499967500567 0.00564999974519014 16 0.043296966701746 -0.382789880037308 -0.124518871307373 0.404855132102966
0.0209500001445413 0.0516499967500567 0.00564999974519014 16 0.0416398160159588 -0.421750456094742 -0.105235479772091 0.436671286821365
0.0237500001862645 0.0516499967500567 0.00564999974519014 16 0.0375022701919079 -0.393279731273651 -0.0619888566434383 0.399897456169128
0.0265500002279878 0.0516499967500567 0.00564999974519014 16 0.0333972461521626 -0.292213320732117 -0.0160871781408787 0.294555246829987
0.029350000269711 0.0516499967500567 0.00564999974519014 16 0.026999969035387 -0.14458455145359 0.0314720273017883 0.150413349270821
0.0321500003114343 0.0516499967500567 0.00564999974519014 16 0.0208795219659805 -0.00119639316108078 0.0593984127044678 0.0629726722836494
0.0349500003531575 0.0516499967500567 0.00564999974519014 16 0.0165813416242599 0.0666687041521072 0.0735628381371498 0.100653603672981
-0.0350500006899238 0.0488499967083335 0.00564999974519014 16 -0.0516053326427937 -0.360137462615967 -0.022177005186677 0.364491313695908
-0.0322500006482005 0.0488499967083335 0.00564999974519014 16 -0.03353151679039 -0.364415615797043 -0.0350604541599751 0.36763072013855
-0.0294500006064773 0.0488499967083335 0.00564999974519014 16 0.0083205932751298 -0.361514985561371 -0.0648530200123787 0.367380201816559
-0.026650000564754 0.0488499967083335 0.00564999974519014 16 0.0620316825807095 -0.321913152933121 -0.0962570533156395 0.341674447059631
-0.0238500005230308 0.0488499967083335 0.00564999974519014 16 0.109897166490555 -0.233468368649483 -0.11867905408144 0.28402391076088
-0.0210500004813075 0.0488499967083335 0.00564999974519014 16 0.136126354336739 -0.0973529890179634 -0.116209097206593 0.203746274113655
-0.0182500004395843 0.0488499967083335 0.00564999974519014 16 0.1325553804636 0.0575461611151695 -0.0882274508476257 0.169312059879303
-0.015450000397861 0.0488499967083335 0.00564999974519014 16 0.103858657181263 0.199546158313751 -0.0389269813895226 0.228299364447594
-0.0126500003561378 0.0488499967083335 0.00564999974519014 16 0.0610795579850674 0.297553509473801 0.0126601923257113 0.304021507501602
-0.0098500003144145 0.0488499967083335 0.00564999974519014 16 0.0160689763724804 0.334755331277847 0.0583805926144123 0.340187668800354
-0.00705000027269125 0.0488499967083335 0.00564999974519014 16 -0.0267582703381777 0.316333413124084 0.0941942930221558 0.331142574548721
-0.004250000230968 0.0488499967083335 0.00564999974519014 16 -0.0622219480574131 0.256327360868454 0.121691264212132 0.290489315986633
-0.00145000018924474 0.0488499967083335 0.00564999974519014 16 -0.0898168906569481 0.182481095194817 0.140103697776794 0.246972605586052
0.0013499998524785 0.0488499967083335 0.00564999974519014 16 -0.102096296846867 0.106946706771851 0.14095813035965 0.204280316829681
0.00414999989420176 0.0488499967083335 0.00564999974519014 16 -0.102292999625206 0.0386062115430832 0.12462355196476 0.165786996483803
0.006949999935925 0.0488499967083335 0.00564999974519014 16 -0.0895793810486794 -0.0323009938001633 0.0907535776495934 0.131544783711433
0.00974999997764826 0.0488499967083335 0.00564999974519014 16 -0.0720802247524261 -0.110137164592743 0.0471268929541111 0.139809504151344
0.0125500000193715 0.0488499967083335 0.00564999974519014 16 -0.0485573522746563 -0.19757080078125 0.000314705888740718 0.203450590372086
0.0153500000610948 0.0488499967083335 0.00564999974519014 16 -0.0209042653441429 -0.285523295402527 -0.0457984954118729 0.289927661418915
0.018150000102818 0.0488499967083335 0.00564999974519014 16 0.0123836267739534 -0.355905383825302 -0.0816514119505882 0.365361392498016
0.0209500001445413 0.0488499967083335 0.00564999974519014 16 0.0517693497240543 -0.388666570186615 -0.112313367426395 0.407867699861526
0.0237500001862645 0.0488499967083335 0.00564999974519014 16 0.092662625014782 -0.363201558589935 -0.126073256134987 0.395469605922699
0.0265500002279878 0.0488499967083335 0.00564999974519014 16 0.130192682147026 -0.274565726518631 -0.134343400597572 0.332241833209991
0.029350000269711 0.0488499967083335 0.00564999974519014 16 0.154154434800148 -0.143958643078804 -0.126415729522705 0.245903670787811
0.0321500003114343 0.0488499967083335 0.00564999974519014 16 0.164372578263283 -0.0175348035991192 -0.119729854166508 0.204110383987427
0.0349500003531575 0.0488499967083335 0.00564999974519014 16 0.165093943476677 0.0435339249670506 -0.111510805785656 0.203926146030426
-0.0350500006899238 0.0460499966666102 0.00564999974519014 16 -0.0771362334489822 -0.298468053340912 0.0128913186490536 0.30854395031929
-0.0322500006482005 0.0460499966666102 0.00564999974519014 16 -0.0521622486412525 -0.298159033060074 -0.00567289395257831 0.302740633487701
-0.0294500006064773 0.0460499966666102 0.00564999974519014 16 0.00419460237026215 -0.287730246782303 -0.0492954850196838 0.291952639818192
-0.026650000564754 0.0460499966666102 0.00564999974519014 16 0.0729408040642738 -0.247632503509521 -0.0970664098858833 0.275797218084335
-0.0238500005230308 0.0460499966666102 0.00564999974519014 16 0.133537754416466 -0.170005366206169 -0.135570719838142 0.255173623561859
-0.0210500004813075 0.0460499966666102 0.00564999974519014 16 0.168258219957352 -0.0596580430865288 -0.146464958786964 0.23091533780098
-0.0182500004395843 0.0460499966666102 0.00564999974519014 16 0.170155167579651 0.0615639090538025 -0.127530097961426 0.221374839544296
-0.015450000397861 0.0460499966666102 0.00564999974519014 16 0.140503942966461 0.171032905578613 -0.079227551817894 0.235097035765648
-0.0126500003561378 0.0460499966666102 0.00564999974519014 16 0.0909015312790871 0.248425424098969 -0.018813494592905 0.265202254056931
-0.0098500003144145 0.0460499966666102 0.00564999974519014 16 0.0322925187647343 0.281335830688477 0.0436312556266785 0.286524593830109
-0.00705000027269125 0.0460499966666102 0.00564999974519014 16 -0.0250968001782894 0.270463675260544 0.0987039431929588 0.289003312587738
-0.004250000230968 0.0460499966666102 0.00564999974519014 16 -0.0748869329690933 0.223428696393967 0.144862070679665 0.276610642671585
-0.00145000018924474 0.0460499966666102 0.00564999974519014 16 -0.112940348684788 0.159838363528252 0.178980827331543 0.265213042497635
0.0013499998524785 0.0460499966666102 0.00564999974519014 16 -0.134670704603195 0.090814620256424 0.194817453622818 0.253648042678833
0.00414999989420176 0.0460499966666102 0.00564999974519014 16 -0.142007127404213 0.025747261941433 0.190753147006035 0.239198043942451
0.006949999935925 0.0460499966666102 0.00564999974519014 16 -0.13601216673851 -0.0403842478990555 0.167343959212303 0.219395071268082
0.00974999997764826 0.0460499966666102 0.00564999974519014 16 -0.120882146060467 -0.107649557292461 0.127733737230301 0.206196084618568
0.0125500000193715 0.0460499966666102 0.00564999974519014 16 -0.0952687934041023 -0.17816948890686 0.0783009007573128 0.21668304502964
0.0153500000610948 0.0460499966666102 0.00564999974519014 16 -0.0579995959997177 -0.244053661823273 0.0205502454191446 0.251691192388535
0.018150000102818 0.0460499966666102 0.00564999974519014 16 -0.00931423529982567 -0.295496493577957 -0.0359257608652115 0.297818034887314
0.0209500001445413 0.0460499966666102 0.00564999974519014 16 0.0498970560729504 -0.316874533891678 -0.0947318822145462 0.334474682807922
0.0237500001862645 0.0460499966666102 0.00564999974519014 16 0.111889034509659 -0.295246630907059 -0.143581032752991 0.346850454807281
0.0265500002279878 0.0460499966666102 0.00564999974519014 16 0.168568789958954 -0.226533591747284 -0.18599970638752 0.338125437498093
0.029350000269711 0.0460499966666102 0.00564999974519014 16 0.208376601338387 -0.127371817827225 -0.207873359322548 0.32071128487587
0.0321500003114343 0.0460499966666102 0.00564999974519014 16 0.228713124990463 -0.0328335165977478 -0.219435840845108 0.318653136491776
0.0349500003531575 0.0460499966666102 0.00564999974519014 16 0.233772799372673 0.0130105316638947 -0.21895894408226 0.32056513428688
-0.0350500006899238 0.043249996624887 0.00564999974519014 16 -0.0772291570901871 -0.232902958989143 0.0251144953072071 0.246655359864235
-0.0322500006482005 0.043249996624887 0.00564999974519014 16 -0.0532638691365719 -0.229534476995468 0.00725674536079168 0.235745146870613
-0.0294500006064773 0.043249996624887 0.00564999974519014 16 -0.00112367630936205 -0.214630007743835 -0.0339069217443466 0.217294692993164
-0.026650000564754 0.043249996624887 0.00564999974519014 16 0.060116820037365 -0.175699651241302 -0.0791145265102386 0.201850205659866
-0.0238500005230308 0.043249996624887 0.00564999974519014 16 0.112202912569046 -0.110218606889248 -0.116278141736984 0.195597141981125
-0.0210500004813075 0.043249996624887 0.00564999974519014 16 0.141282990574837 -0.0244462490081787 -0.127986252307892 0.192195177078247
-0.0182500004395843 0.043249996624887 0.00564999974519014 16 0.143816903233528 0.0643745288252831 -0.112759105861187 0.193757578730583
-0.015450000397861 0.043249996624887 0.00564999974519014 16 0.120003648102283 0.143002301454544 -0.0700238570570946 0.199383735656738
-0.0126500003561378 0.043249996624887 0.00564999974519014 16 0.0791689902544022 0.198688566684723 -0.0141577776521444 0.21434859931469
-0.0098500003144145 0.043249996624887 0.00564999974519014 16 0.0283586587756872 0.225100815296173 0.0456938743591309 0.231435790657997
-0.00705000027269125 0.043249996624887 0.00564999974519014 16 -0.0221806243062019 0.219478651881218 0.100218459963799 0.242294445633888
-0.004250000230968 0.043249996624887 0.00564999974519014 16 -0.0674229189753532 0.185631230473518 0.146643072366714 0.245985761284828
-0.00145000018924474 0.043249996624887 0.00564999974519014 16 -0.102272048592567 0.134173735976219 0.182571724057198 0.248585194349289
0.0013499998524785 0.043249996624887 0.00564999974519014 16 -0.124164491891861 0.0753534361720085 0.203498542308807 0.25001323223114
0.00414999989420176 0.043249996624887 0.00564999974519014 16 -0.133382469415665 0.0168840419501066 0.206817835569382 0.246677055954933
0.006949999935925 0.043249996624887 0.00564999974519014 16 -0.131421983242035 -0.0404570773243904 0.191913172602654 0.236091464757919
0.00974999997764826 0.043249996624887 0.00564999974519014 16 -0.119681231677532 -0.0953739285469055 0.158668920397758 0.220444113016129
0.0125500000193715 0.043249996624887 0.00564999974519014 16 -0.0968120694160461 -0.147675722837448 0.11185048520565 0.209024459123611
0.0153500000610948 0.043249996624887 0.00564999974519014 16 -0.0598675608634949 -0.192325681447983 0.0525787696242332 0.208177372813225
0.018150000102818 0.043249996624887 0.00564999974519014 16 -0.0102953864261508 -0.225447773933411 -0.0101615712046623 0.225911378860474
0.0209500001445413 0.043249996624887 0.00564999974519014 16 0.0489199049770832 -0.237735167145729 -0.0762148424983025 0.254400998353958
0.0237500001862645 0.043249996624887 0.00564999974519014 16 0.109508290886879 -0.222644463181496 -0.135158121585846 0.282542645931244
0.0265500002279878 0.043249996624887 0.00564999974519014 16 0.163200929760933 -0.176203057169914 -0.186538815498352 0.304103255271912
0.029350000269711 0.043249996624887 0.00564999974519014 16 0.201843664050102 -0.109279811382294 -0.220001354813576 0.317936390638351
0.0321500003114343 0.043249996624887 0.00564999974519014 16 0.222150146961212 -0.0451276637613773 -0.239756643772125 0.329955220222473
0.0349500003531575 0.043249996624887 0.00564999974519014 16 0.228660136461258 -0.0135068111121655 -0.245080828666687 0.335458666086197
-0.0350500006899238 0.0404499965831637 0.00564999974519014 16 -0.057507898658514 -0.182758927345276 0.014973103068769 0.192177474498749
-0.0322500006482005 0.0404499965831637 0.00564999974519014 16 -0.0398878566920757 -0.177161291241646 0.00243682879954576 0.181612506508827
-0.0294500006064773 0.0404499965831637 0.00564999974519014 16 -0.0033375786151737 -0.160066589713097 -0.0261803939938545 0.16222782433033
-0.026650000564754 0.0404499965831637 0.00564999974519014 16 0.0382987670600414 -0.123647138476372 -0.0574699603021145 0.141626998782158
-0.0238500005230308 0.0404499965831637 0.00564999974519014 16 0.0712293982505798 -0.0694935619831085 -0.0823702812194824 0.129181444644928
-0.0210500004813075 0.0404499965831637 0.00564999974519014 16 0.0879811495542526 -0.00256514549255371 -0.087939940392971 0.124421440064907
-0.0182500004395843 0.0404499965831637 0.00564999974519014 16 0.0875591337680817 0.062729649245739 -0.0735295563936234 0.130415514111519
-0.015450000397861 0.0404499965831637 0.00564999974519014 16 0.0710292235016823 0.119780510663986 -0.0379804894328117 0.144343480467796
-0.0126500003561378 0.0404499965831637 0.00564999974519014 16 0.0445362366735935 0.159544691443443 0.00693293986842036 0.165789172053337
-0.0098500003144145 0.0404499965831637 0.00564999974519014 16 0.010903543792665 0.17985899746418 0.0548429526388645 0.188350468873978
-0.00705000027269125 0.0404499965831637 0.00564999974519014 16 -0.0232543498277664 0.175894215703011 0.0989528745412827 0.203153163194656
-0.004250000230968 0.0404499965831637 0.00564999974519014 16 -0.0550775304436684 0.150642767548561 0.137357831001282 0.211172804236412
-0.00145000018924474 0.0404499965831637 0.00564999974519014 16 -0.0797170475125313 0.109110184013844 0.16755473613739 0.215254336595535
0.0013499998524785 0.0404499965831637 0.00564999974519014 16 -0.095002755522728 0.0612081214785576 0.185086145997047 0.216861337423325
0.00414999989420176 0.0404499965831637 0.00564999974519014 16 -0.101560868322849 0.0113717317581177 0.188806116580963 0.214689716696739
0.006949999935925 0.0404499965831637 0.00564999974519014 16 -0.100575491786003 -0.0361862815916538 0.178951948881149 0.208443462848663
0.00974999997764826 0.0404499965831637 0.00564999974519014 16 -0.0924819186329842 -0.0800607353448868 0.154777124524117 0.197277933359146
0.0125500000193715 0.0404499965831637 0.00564999974519014 16 -0.0741925314068794 -0.117617569863796 0.116751924157143 0.181574881076813
0.0153500000610948 0.0404499965831637 0.00564999974519014 16 -0.0426395237445831 -0.146851241588593 0.0638259127736092 0.165702030062675
0.018150000102818 0.0404499965831637 0.00564999974519014 16 0.000429556472226977 -0.16723595559597 0.00321919727139175 0.167267486453056
0.0209500001445413 0.0404499965831637 0.00564999974519014 16 0.0497738383710384 -0.174573019146919 -0.0604511015117168 0.191330879926682
0.0237500001862645 0.0404499965831637 0.00564999974519014 16 0.0977470055222511 -0.165354683995247 -0.116591706871986 0.224700406193733
0.0265500002279878 0.0404499965831637 0.00564999974519014 16 0.137230217456818 -0.136363551020622 -0.163007691502571 0.252979546785355
0.029350000269711 0.0404499965831637 0.00564999974519014 16 0.165181323885918 -0.0942377001047134 -0.194527670741081 0.272041589021683
0.0321500003114343 0.0404499965831637 0.00564999974519014 16 0.179447755217552 -0.0538900718092918 -0.213925421237946 0.28437602519989
0.0349500003531575 0.0404499965831637 0.00564999974519014 16 0.184838593006134 -0.0339749865233898 -0.220776796340942 0.289934456348419
-0.0350500006899238 0.0376499965414405 0.00564999974519014 16 -0.0289912838488817 -0.148968890309334 -0.00196886505000293 0.151776477694511
-0.0322500006482005 0.0376499965414405 0.00564999974519014 16 -0.0179741103202105 -0.142304927110672 -0.00905440468341112 0.143721058964729
-0.0294500006064773 0.0376499965414405 0.00564999974519014 16 0.00349820288829505 -0.124374724924564 -0.0253589060157537 0.126981824636459
-0.026650000564754 0.0376499965414405 0.00564999974519014 16 0.0266285985708237 -0.0904857367277145 -0.0435236394405365 0.103880017995834
-0.0238500005230308 0.0376499965414405 0.00564999974519014 16 0.0416278876364231 -0.0447111874818802 -0.0564759224653244 0.0831955596804619
-0.0210500004813075 0.0376499965414405 0.00564999974519014 16 0.0457870736718178 0.00974496081471443 -0.0549273230135441 0.0721694603562355
-0.0182500004395843 0.0376499965414405 0.00564999974519014 16 0.0397022515535355 0.0609586536884308 -0.0381886772811413 0.082162044942379
-0.015450000397861 0.0376499965414405 0.00564999974519014 16 0.0258783586323261 0.106010936200619 -0.0065507423132658 0.109320268034935
-0.0126500003561378 0.0376499965414405 0.00564999974519014 16 0.00868444517254829 0.136735185980797 0.029268791899085 0.140102088451385
-0.0098500003144145 0.0376499965414405 0.00564999974519014 16 -0.0112708993256092 0.152487307786942 0.065164603292942 0.16621021926403
-0.00705000027269125 0.0376499965414405 0.00564999974519014 16 -0.0301166586577892 0.148007526993752 0.0961077287793159 0.179024964570999