TITLE="DynamicStudio Exported Data"
VARIABLES= "X (m)[m]" "Y (m)[m]" "Z (m)[m]" "Status[-]" "U[-]" "V[-]" "W[-]" "Length[-]"
ZONE T="DynamicStudio Data" F=POINT
-0.0350500006899238 0.0600499968752265 0.00564999974519014 16 0.222800955176353 -0.0425229482352734 -0.270162612199783 0.352755308151245
-0.0322500006482005 0.0600499968752265 0.00564999974519014 16 0.210772305727005 -0.0697831586003304 -0.252364337444305 0.336128562688828
-0.0294500006064773 0.0600499968752265 0.00564999974519014 16 0.180480271577835 -0.134848445653915 -0.216673135757446 0.312577158212662
-0.026650000564754 0.0600499968752265 0.00564999974519014 16 0.123384349048138 -0.218030467629433 -0.142295137047768 0.288112640380859
-0.0238500005230308 0.0600499968752265 0.00564999974519014 16 0.045473787933588 -0.298286259174347 -0.0555974394083023 0.306812047958374
-0.0210500004813075 0.0600499968752265 0.00564999974519014 16 -0.0563652850687504 -0.342325568199158 0.0577340349555016 0.351705938577652
-0.0182500004395843 0.0600499968752265 0.00564999974519014 16 -0.165828004479408 -0.327484905719757 0.166471317410469 0.403060764074326
-0.015450000397861 0.0600499968752265 0.00564999974519014 16 -0.26628378033638 -0.240491464734077 0.270812004804611 0.449535697698593
-0.0126500003561378 0.0600499968752265 0.00564999974519014 16 -0.329193651676178 -0.0971103608608246 0.341277718544006 0.484013795852661
-0.0098500003144145 0.0600499968752265 0.00564999974519014 16 -0.336542189121246 0.071724459528923 0.365466892719269 0.501967251300812
-0.00705000027269125 0.0600499968752265 0.00564999974519014 16 -0.28271809220314 0.225989580154419 0.326427072286606 0.487396597862244
-0.004250000230968 0.0600499968752265 0.00564999974519014 16 -0.182085171341896 0.330450296401978 0.232144713401794 0.442993879318237
-0.00145000018924474 0.0600499968752265 0.00564999974519014 16 -0.0608539022505283 0.367732644081116 0.107335843145847 0.387880742549896
0.0013499998524785 0.0600499968752265 0.00564999974519014 16 0.0524552427232265 0.335240036249161 -0.013152239844203 0.339573860168457
0.00414999989420176 0.0600499968752265 0.00564999974519014 16 0.136965483427048 0.255770981311798 -0.103169105947018 0.307932138442993
0.006949999935925 0.0600499968752265 0.00564999974519014 16 0.186221286654472 0.159052237868309 -0.156346127390862 0.290551364421844
0.00974999997764826 0.0600499968752265 0.00564999974519014 16 0.205826103687286 0.0742654129862785 -0.18203142285347 0.284631639719009
0.0125500000193715 0.0600499968752265 0.00564999974519014 16 0.207953318953514 0.0122455023229122 -0.198102608323097 0.287470310926437
0.0153500000610948 0.0600499968752265 0.00564999974519014 16 0.203825771808624 -0.0350903831422329 -0.221040412783623 0.302712976932526
0.018150000102818 0.0600499968752265 0.00564999974519014 16 0.197711899876595 -0.0884388387203217 -0.254066467285156 0.333858042955399
0.0209500001445413 0.0600499968752265 0.00564999974519014 16 0.183027818799019 -0.160536497831345 -0.285314947366714 0.375067681074142
0.0237500001862645 0.0600499968752265 0.00564999974519014 16 0.145755454897881 -0.251018315553665 -0.285213142633438 0.406941473484039
0.0265500002279878 0.0600499968752265 0.00564999974519014 16 0.0759862884879112 -0.334345549345016 -0.23639290034771 0.416464239358902
0.029350000269711 0.0600499968752265 0.00564999974519014 16 -0.0151405017822981 -0.395143240690231 -0.145638108253479 0.421399921178818
0.0321500003114343 0.0600499968752265 0.00564999974519014 16 -0.0985720828175545 -0.421980619430542 -0.0547914318740368 0.43679079413414
0.0349500003531575 0.0600499968752265 0.00564999974519014 16 -0.136796876788139 -0.432237595319748 -0.0100619057193398 0.45347985625267
-0.0350500006899238 0.0572499968335032 0.00564999974519014 16 0.183769181370735 -0.0381921045482159 -0.231977954506874 0.29840162396431
-0.0322500006482005 0.0572499968335032 0.00564999974519014 16 0.172475099563599 -0.0674748495221138 -0.213986620306969 0.283003151416779
-0.0294500006064773 0.0572499968335032 0.00564999974519014 16 0.146527841687202 -0.136912792921066 -0.181992009282112 0.270807355642319
-0.026650000564754 0.0572499968335032 0.00564999974519014 16 0.0992811247706413 -0.228043779730797 -0.119344927370548 0.275869399309158
-0.0238500005230308 0.0572499968335032 0.00564999974519014 16 0.0365143902599812 -0.316746771335602 -0.0487140528857708 0.322544395923615
-0.0210500004813075 0.0572499968335032 0.00564999974519014 16 -0.0452532544732094 -0.368400037288666 0.0440735593438148 0.37377655506134
-0.0182500004395843 0.0572499968335032 0.00564999974519014 16 -0.134293615818024 -0.355919301509857 0.135255321860313 0.403741657733917
-0.015450000397861 0.0572499968335032 0.00564999974519014 16 -0.21851846575737 -0.264694452285767 0.225904300808907 0.410909026861191
-0.0126500003561378 0.0572499968335032 0.00564999974519014 16 -0.274114578962326 -0.110629297792912 0.289977103471756 0.414082556962967
-0.0098500003144145 0.0572499968335032 0.00564999974519014 16 -0.284565687179565 0.0730874836444855 0.31508681178093 0.430812150239944
-0.00705000027269125 0.0572499968335032 0.00564999974519014 16 -0.242710292339325 0.241449907422066 0.284989356994629 0.445449531078339
-0.004250000230968 0.0572499968335032 0.00564999974519014 16 -0.159171879291534 0.356870234012604 0.205472767353058 0.441487371921539
-0.00145000018924474 0.0572499968335032 0.00564999974519014 16 -0.0554032139480114 0.396973788738251 0.0960781127214432 0.412175565958023
0.0013499998524785 0.0572499968335032 0.00564999974519014 16 0.0435066036880016 0.360948711633682 -0.011043862439692 0.363728940486908
0.00414999989420176 0.0572499968335032 0.00564999974519014 16 0.117627389729023 0.272442787885666 -0.0917365178465843 0.310607254505157
0.006949999935925 0.0572499968335032 0.00564999974519014 16 0.160364627838135 0.166767314076424 -0.1375682502985 0.269171267747879
0.00974999997764826 0.0572499968335032 0.00564999974519014 16 0.17539744079113 0.0754037201404572 -0.156328245997429 0.246755972504616
0.0125500000193715 0.0572499968335032 0.00564999974519014 16 0.174974098801613 0.0107383942231536 -0.165252447128296 0.240914136171341
0.0153500000610948 0.0572499968335032 0.00564999974519014 16 0.169770926237106 -0.0369726866483688 -0.181674003601074 0.25138533115387
0.018150000102818 0.0572499968335032 0.00564999974519014 16 0.165039137005806 -0.0905074551701546 -0.212563917040825 0.283924162387848
0.0209500001445413 0.0572499968335032 0.00564999974519014 16 0.153966397047043 -0.165632024407387 -0.2457265406847 0.333947837352753
0.0237500001862645 0.0572499968335032 0.00564999974519014 16 0.124390669167042 -0.262355297803879 -0.254728019237518 0.386250853538513
0.0265500002279878 0.0572499968335032 0.00564999974519014 16 0.0675785914063454 -0.354795753955841 -0.220863282680511 0.423352658748627
0.029350000269711 0.0572499968335032 0.00564999974519014 16 -0.0059770131483674 -0.423794656991959 -0.150583863258362 0.449792325496674
0.0321500003114343 0.0572499968335032 0.00564999974519014 16 -0.0731171146035194 -0.45669361948967 -0.0775326415896416 0.468963205814362
0.0349500003531575 0.0572499968335032 0.00564999974519014 16 -0.103785000741482 -0.468067198991776 -0.0411634892225266 0.4811991751194
-0.0350500006899238 0.05444999679178 0.00564999974519014 16 0.0891169384121895 -0.0366740338504314 -0.130329415202141 0.16208815574646
-0.0322500006482005 0.05444999679178 0.00564999974519014 16 0.081420511007309 -0.0684958323836327 -0.117953084409237 0.158851847052574
-0.0294500006064773 0.05444999679178 0.00564999974519014 16 0.0665198415517807 -0.143504023551941 -0.0997212007641792 0.186982914805412
-0.026650000564754 0.05444999679178 0.00564999974519014 16 0.0411638952791691 -0.244748651981354 -0.0637238547205925 0.256236404180527
-0.0238500005230308 0.05444999679178 0.00564999974519014 16 0.013303617015481 -0.344181776046753 -0.0313907377421856 0.345866233110428
-0.0210500004813075 0.05444999679178 0.00564999974519014 16 -0.0227846913039684 -0.405680596828461 0.0142347542569041 0.406569212675095
-0.0182500004395843 0.05444999679178 0.00564999974519014 16 -0.0623051486909389 -0.396656066179276 0.0589603520929813 0.405825436115265
-0.015450000397861 0.05444999679178 0.00564999974519014 16 -0.105235919356346 -0.300697803497314 0.111939363181591 0.337674677371979
-0.0126500003561378 0.05444999679178 0.00564999974519014 16 -0.138220965862274 -0.132542580366135 0.155351862311363 0.246590301394463
-0.0098500003144145 0.05444999679178 0.00564999974519014 16 -0.152480334043503 0.0727181434631348 0.182210996747017 0.248473390936852
-0.00705000027269125 0.05444999679178 0.00564999974519014 16 -0.137620881199837 0.262827306985855 0.174378275871277 0.344130039215088
-0.004250000230968 0.05444999679178 0.00564999974519014 16 -0.0957440435886383 0.395375847816467 0.132446974515915 0.427821427583694
-0.00145000018924474 0.05444999679178 0.00564999974519014 16 -0.0356691218912601 0.440171778202057 0.0639224052429199 0.446216940879822
0.0013499998524785 0.05444999679178 0.00564999974519014 16 0.0267181824892759 0.398613303899765 -0.00721503468230367 0.399572879076004
0.00414999989420176 0.05444999679178 0.00564999974519014 16 0.0744103416800499 0.296259164810181 -0.0627846941351891 0.311846613883972
0.006949999935925 0.05444999679178 0.00564999974519014 16 0.100297853350639 0.176845580339432 -0.0907977744936943 0.222661748528481
0.00974999997764826 0.05444999679178 0.00564999974519014 16 0.104575447738171 0.0754984691739082 -0.094991460442543 0.160185590386391
0.0125500000193715 0.05444999679178 0.00564999974519014 16 0.0989705771207809 0.00631103850901127 -0.0897443518042564 0.133749961853027
0.0153500000610948 0.05444999679178 0.00564999974519014 16 0.0919174924492836 -0.0433115996420383 -0.092532567679882 0.137429967522621
0.018150000102818 0.05444999679178 0.00564999974519014 16 0.0889251902699471 -0.0988831073045731 -0.115733213722706 0.176294460892677
0.0209500001445413 0.05444999679178 0.00564999974519014 16 0.0841540172696114 -0.179540291428566 -0.15030825138092 0.248815566301346
0.0237500001862645 0.05444999679178 0.00564999974519014 16 0.0711676031351089 -0.285018593072891 -0.17780527472496 0.343387752771378
0.0265500002279878 0.05444999679178 0.00564999974519014 16 0.044519267976284 -0.389212220907211 -0.178607985377312 0.430544912815094
0.029350000269711 0.05444999679178 0.00564999974519014 16 0.0118660088628531 -0.468390673398972 -0.156055018305779 0.493845909833908
0.0321500003114343 0.05444999679178 0.00564999974519014 16 -0.0178330261260271 -0.507833123207092 -0.12537057697773 0.523383498191833
0.0349500003531575 0.05444999679178 0.00564999974519014 16 -0.0305917151272297 -0.520249605178833 -0.110159441828728 0.532663702964783
-0.0350500006899238 0.0516499967500567 0.00564999974519014 16 -0.0197152551263571 -0.0527923665940762 -0.0223054569214582 0.0606074146926403
-0.0322500006482005 0.0516499967500567 0.00564999974519014 16 -0.0238734353333712 -0.0839157700538635 -0.0135132065042853 0.0882859230041504
-0.0294500006064773 0.0516499967500567 0.00564999974519014 16 -0.0253996234387159 -0.15712608397007 -0.00844058953225613 0.159389436244965
-0.026650000564754 0.0516499967500567 0.00564999974519014 16 -0.0247992370277643 -0.256762325763702 -0.00292097823694348 0.257973700761795
-0.0238500005230308 0.0516499967500567 0.00564999974519014 16 -0.0122284302487969 -0.354149252176285 -0.0145243098959327 0.354657828807831
-0.0210500004813075 0.0516499967500567 0.00564999974519014 16 0.00351492804475129 -0.414656043052673 -0.0239889863878489 0.415364265441895
-0.0182500004395843 0.0516499967500567 0.00564999974519014 16 0.0214280020445585 -0.404462724924088 -0.0347562655806541 0.406518429517746
-0.015450000397861 0.0516499967500567 0.00564999974519014 16 0.0275190845131874 -0.307689934968948 -0.0287175290286541 0.310250043869019
-0.0126500003561378 0.0516499967500567 0.00564999974519014 16 0.0240987986326218 -0.137844040989876 -0.0152021590620279 0.140758082270622
-0.0098500003144145 0.0516499967500567 0.00564999974519014 16 0.00922170747071505 0.0704784914851189 0.00805262848734856 0.0715339258313179
-0.00705000027269125 0.0516499967500567 0.00564999974519014 16 -0.004123798571527 0.264908850193024 0.0238951947540045 0.266016334295273
-0.004250000230968 0.0516499967500567 0.00564999974519014 16 -0.0106463059782982 0.403319984674454 0.0295949429273605 0.404544442892075
-0.00145000018924474 0.0516499967500567 0.00564999974519014 16 -0.00500287441536784 0.451823502779007 0.0178881511092186 0.452205151319504
0.0013499998524785 0.0516499967500567 0.00564999974519014 16 0.00773277180269361 0.412338525056839 0.000982164056040347 0.412412196397781
0.00414999989420176 0.0516499967500567 0.00564999974519014 16 0.0176668427884579 0.308385938405991 -0.0133895119652152 0.30918163061142
0.006949999935925 0.0516499967500567 0.00564999974519014 16 0.0188882444053888 0.186028257012367 -0.0129867382347584 0.187435150146484
0.00974999997764826 0.0516499967500567 0.00564999974519014 16 0.00921234954148531 0.0797713547945023 0.00185831461567432 0.0803230330348015
0.0125500000193715 0.0516499967500567 0.00564999974519014 16 -0.00251910020597279 0.00506471144035459 0.0218602474778891 0.022580249235034
0.0153500000610948 0.0516499967500567 0.00564999974519014 16 -0.0104269962757826 -0.0503376014530659 0.0312202740460634 0.0601440072059631
0.018150000102818 0.0516499967500567 0.00564999974519014 16 -0.00971473101526499 -0.109170034527779 0.0149638345465064 0.110618211328983
0.0209500001445413 0.0516499967500567 0.00564999974519014 16 -0.00437224237248302 -0.190948992967606 -0.0229763127863407 0.192376047372818
0.0237500001862645 0.0516499967500567 0.00564999974519014 16 0.00475443433970213 -0.294709414243698 -0.0730526074767113 0.303665816783905
0.0265500002279878 0.0516499967500567 0.00564999974519014 16 0.0165992416441441 -0.397890567779541 -0.117752879858017 0.415280848741531
0.029350000269711 0.0516499967500567 0.00564999974519014 16 0.0342013575136662 -0.475946426391602 -0.154785245656967 0.501650452613831
0.0321500003114343 0.0516499967500567 0.00564999974519014 16 0.050832886248827 -0.515761315822601 -0.177583560347557 0.547840893268585
0.0349500003531575 0.0516499967500567 0.00564999974519014 16 0.0601463504135609 -0.527904331684113 -0.188266590237617 0.563688635826111
-0.0350500006899238 0.0488499967083335 0.00564999974519014 16 -0.111977443099022 -0.0790532603859901 0.0678032711148262 0.152923673391342
-0.0322500006482005 0.0488499967083335 0.00564999974519014 16 -0.110990062355995 -0.106155931949615 0.0685193985700607 0.168174862861633
-0.0294500006064773 0.0488499967083335 0.00564999974519014 16 -0.0993834435939789 -0.168470546603203 0.05846007168293 0.204149395227432
-0.026650000564754 0.0488499967083335 0.00564999974519014 16 -0.0765638649463654 -0.251501888036728 0.0368039831519127 0.265461415052414
-0.0238500005230308 0.0488499967083335 0.00564999974519014 16 -0.0323990881443024 -0.330416411161423 -0.00867252051830292 0.332114309072495
-0.0210500004813075 0.0488499967083335 0.00564999974519014 16 0.022710595279932 -0.375709891319275 -0.061878677457571 0.381448119878769
-0.0182500004395843 0.0488499967083335 0.00564999974519014 16 0.0849799364805222 -0.360030055046082 -0.119222842156887 0.388660937547684
-0.015450000397861 0.0488499967083335 0.00564999974519014 16 0.131426095962524 -0.271112263202667 -0.155988723039627 0.33927446603775
-0.0126500003561378 0.0488499967083335 0.00564999974519014 16 0.155242338776588 -0.120095729827881 -0.170890137553215 0.260243356227875
-0.0098500003144145 0.0488499967083335 0.00564999974519014 16 0.144919365644455 0.0643806010484695 -0.152406498789787 0.219941407442093
-0.00705000027269125 0.0488499967083335 0.00564999974519014 16 0.112330213189125 0.238191276788712 -0.11539314687252 0.287521719932556
-0.004250000230968 0.0488499967083335 0.00564999974519014 16 0.0674414187669754 0.364625841379166 -0.0659384503960609 0.376627445220947
-0.00145000018924474 0.0488499967083335 0.00564999974519014 16 0.0268395449966192 0.412290245294571 -0.023437300696969 0.413827151060104
0.0013499998524785 0.0488499967083335 0.00564999974519014 16 -0.00529206544160843 0.381829172372818 0.0124390004202724 0.382068365812302
0.00414999989420176 0.0488499967083335 0.00564999974519014 16 -0.0298991929739714 0.29109451174736 0.0390358939766884 0.295218199491501
0.006949999935925 0.0488499967083335 0.00564999974519014 16 -0.05179812759161 0.181126654148102 0.0665523409843445 0.199797719717026
0.00974999997764826 0.0488499967083335 0.00564999974519014 16 -0.0726681500673294 0.0806183665990829 0.0963867604732513 0.145156428217888
0.0125500000193715 0.0488499967083335 0.00564999974519014 16 -0.088428407907486 0.00499895121902227 0.125050067901611 0.153238669037819
0.0153500000610948 0.0488499967083335 0.00564999974519014 16 -0.0953022539615631 -0.0558962449431419 0.140243425965309 0.178536057472229
0.018150000102818 0.0488499967083335 0.00564999974519014 16 -0.0909164473414421 -0.117118269205093 0.128536015748978 0.196224346756935
0.0209500001445413 0.0488499967083335 0.00564999974519014 16 -0.0762611106038094 -0.194116026163101 0.0879667177796364 0.226351350545883
0.0237500001862645 0.0488499967083335 0.00564999974519014 16 -0.0483940318226814 -0.283428341150284 0.0214638020843267 0.28833019733429
0.0265500002279878 0.0488499967083335 0.00564999974519014 16 -0.00447147013619542 -0.3686643242836 -0.0587491989135742 0.37334281206131
0.029350000269711 0.0488499967083335 0.00564999974519014 16 0.0527078323066235 -0.429602801799774 -0.143177166581154 0.455890774726868
0.0321500003114343 0.0488499967083335 0.00564999974519014 16 0.105195932090282 -0.458684921264648 -0.209472984075546 0.515108704566956
0.0349500003531575 0.0488499967083335 0.00564999974519014 16 0.130637899041176 -0.466608166694641 -0.240468740463257 0.540938675403595
-0.0350500006899238 0.0460499966666102 0.00564999974519014 16 -0.152052044868469 -0.103726528584957 0.0968582034111023 0.207991644740105
-0.0322500006482005 0.0460499966666102 0.00564999974519014 16 -0.147492244839668 -0.124625377357006 0.0920390784740448 0.213908016681671
-0.0294500006064773 0.0460499966666102 0.00564999974519014 16 -0.12798935174942 -0.17137847840786 0.0721770003437996 0.225746273994446
-0.026650000564754 0.0460499966666102 0.00564999974519014 16 -0.0942130982875824 -0.230327531695366 0.0371310748159885 0.251606017351151
-0.0238500005230308 0.0460499966666102 0.00564999974519014 16 -0.0387109704315662 -0.282107919454575 -0.0206382591277361 0.285498440265656
-0.0210500004813075 0.0460499966666102 0.00564999974519014 16 0.0286453403532505 -0.30496683716774 -0.089239701628685 0.319043964147568
-0.0182500004395843 0.0460499966666102 0.00564999974519014 16 0.103826053440571 -0.281644731760025 -0.162767857313156 0.341462999582291
-0.015450000397861 0.0460499966666102 0.00564999974519014 16 0.164071664214134 -0.20488803088665 -0.216817826032639 0.340453505516052
-0.0126500003561378 0.0460499966666102 0.00564999974519014 16 0.198745653033257 -0.0846816301345825 -0.243752375245094 0.325708508491516
-0.0098500003144145 0.0460499966666102 0.00564999974519014 16 0.193672239780426 0.0586165376007557 -0.228704214096069 0.30536937713623
-0.00705000027269125 0.0460499966666102 0.00564999974519014 16 0.156745135784149 0.193719059228897 -0.181323498487473 0.308179050683975
-0.004250000230968 0.0460499966666102 0.00564999974519014 16 0.098192423582077 0.294900476932526 -0.109404355287552 0.329510778188705
-0.00145000018924474 0.0460499966666102 0.00564999974519014 16 0.0373992584645748 0.3379807472229 -0.0353796407580376 0.341879218816757
0.0013499998524785 0.0460499966666102 0.00564999974519014 16 -0.0171946063637733 0.321898579597473 0.0325421094894409 0.323995888233185
0.00414999989420176 0.0460499966666102 0.00564999974519014 16 -0.0590088628232479 0.256212919950485 0.0850914716720581 0.276346981525421
0.006949999935925 0.0460499966666102 0.00564999974519014 16 -0.0923549011349678 0.170590937137604 0.129000529646873 0.232963159680367
0.00974999997764826 0.0460499966666102 0.00564999974519014 16 -0.116645075380802 0.084014780819416 0.165472820401192 0.219193547964096
0.0125500000193715 0.0460499966666102 0.00564999974519014 16 -0.132752642035484 0.0112107386812568 0.194555416703224 0.235798120498657
0.0153500000610948 0.0460499966666102 0.00564999974519014 16 -0.136432230472565 -0.0534020140767097 0.206413432955742 0.253124535083771
0.018150000102818 0.0460499966666102 0.00564999974519014 16 -0.12741956114769 -0.114373244345188 0.191884309053421 0.25717031955719
0.0209500001445413 0.0460499966666102 0.00564999974519014 16 -0.104305908083916 -0.180800661444664 0.146654963493347 0.255100518465042
0.0237500001862645 0.0460499966666102 0.00564999974519014 16 -0.0647394359111786 -0.248172134160995 0.0723749473690987 0.266493409872055
0.0265500002279878 0.0460499966666102 0.00564999974519014 16 -0.00519832409918308 -0.306806802749634 -0.0236121322959661 0.307757973670959
0.029350000269711 0.0460499966666102 0.00564999974519014 16 0.0677621513605118 -0.344445496797562 -0.126529961824417 0.37315446138382
0.0321500003114343 0.0460499966666102 0.00564999974519014 16 0.133377939462662 -0.359412014484406 -0.210002601146698 0.437112987041473
0.0349500003531575 0.0460499966666102 0.00564999974519014 16 0.164631769061089 -0.362663686275482 -0.24821712076664 0.469297677278519
-0.0350500006899238 0.043249996624887 0.00564999974519014 16 -0.148250862956047 -0.109504468739033 0.0862211063504219 0.203478813171387
-0.0322500006482005 0.043249996624887 0.00564999974519014 16 -0.140858963131905 -0.12522691488266 0.0761421918869019 0.203274831175804
-0.0294500006064773 0.043249996624887 0.00564999974519014 16 -0.118450485169888 -0.158350929617882 0.0484533607959747 0.203600749373436
-0.026650000564754 0.043249996624887 0.00564999974519014 16 -0.0841006562113762 -0.197173148393631 0.00967287551611662 0.214578032493591
-0.0238500005230308 0.043249996624887 0.00564999974519014 16 -0.0339762344956398 -0.225719034671783 -0.0447249189019203 0.232602208852768
-0.0210500004813075 0.043249996624887 0.00564999974519014 16 0.0244246032088995 -0.230000033974648 -0.105938456952572 0.254400342702866
-0.0182500004395843 0.043249996624887 0.00564999974519014 16 0.0881109088659286 -0.201514258980751 -0.170831575989723 0.278486907482147
-0.015450000397861 0.043249996624887 0.00564999974519014 16 0.140168949961662 -0.138255208730698 -0.219787672162056 0.295073658227921
-0.0126500003561378 0.043249996624887 0.00564999974519014 16 0.170548766851425 -0.0488344319164753 -0.242126390337944 0.300161421298981
-0.0098500003144145 0.043249996624887 0.00564999974519014 16 0.167676657438278 0.0546846054494381 -0.225077658891678 0.285947233438492
-0.00705000027269125 0.043249996624887 0.00564999974519014 16 0.135409370064735 0.151867210865021 -0.173658534884453 0.267500728368759
-0.004250000230968 0.043249996624887 0.00564999974519014 16 0.0817523822188377 0.227008163928986 -0.0978657081723213 0.260372549295425
-0.00145000018924474 0.043249996624887 0.00564999974519014 16 0.023711945861578 0.262672036886215 -0.0176527295261621 0.264330238103867
0.0013499998524785 0.043249996624887 0.00564999974519014 16 -0.0296682640910149 0.257416516542435 0.0550708137452602 0.264908045530319
0.00414999989420176 0.043249996624887 0.00564999974519014 16 -0.0690063163638115 0.21437095105648 0.111704595386982 0.251385539770126
0.006949999935925 0.043249996624887 0.00564999974519014 16 -0.0992933064699173 0.152540549635887 0.156776815652847 0.240222290158272
0.00974999997764826 0.043249996624887 0.00564999974519014 16 -0.11883894354105 0.0828440338373184 0.19073911011219 0.239514589309692
0.0125500000193715 0.043249996624887 0.00564999974519014 16 -0.13122832775116 0.0179217252880335 0.21361269056797 0.251341283321381
0.0153500000610948 0.043249996624887 0.00564999974519014 16 -0.130514517426491 -0.0441522188484669 0.216571062803268 0.256683617830276
0.018150000102818 0.043249996624887 0.00564999974519014 16 -0.117425620555878 -0.101333528757095 0.195334389805794 0.249424904584885
0.0209500001445413 0.043249996624887 0.00564999974519014 16 -0.0901015400886536 -0.156558990478516 0.146882891654968 0.232816651463509
0.0237500001862645 0.043249996624887 0.00564999974519014 16 -0.0485275462269783 -0.205106839537621 0.0752284377813339 0.22379244863987
0.0265500002279878 0.043249996624887 0.00564999974519014 16 0.0087454067543149 -0.240903675556183 -0.0155641473829746 0.24156428873539
0.029350000269711 0.043249996624887 0.00564999974519014 16 0.0753818154335022 -0.259321957826614 -0.110035732388496 0.291613012552261
0.0321500003114343 0.043249996624887 0.00564999974519014 16 0.133486106991768 -0.262373447418213 -0.187351197004318 0.348939597606659
0.0349500003531575 0.043249996624887 0.00564999974519014 16 0.161170616745949 -0.26164972782135 -0.222371444106102 0.379322558641434
-0.0350500006899238 0.0404499965831637 0.00564999974519014 16 -0.114598110318184 -0.101427137851715 0.0557776056230068 0.162884414196014
-0.0322500006482005 0.0404499965831637 0.00564999974519014 16 -0.106979548931122 -0.113672979176044 0.0430690571665764 0.161929339170456
-0.0294500006064773 0.0404499965831637 0.00564999974519014 16 -0.0866117104887962 -0.137580960988998 0.0120654981583357 0.163020506501198
-0.026650000564754 0.0404499965831637 0.00564999974519014 16 -0.0588051490485668 -0.163238048553467 -0.0239075608551502 0.175146445631981
-0.0238500005230308 0.0404499965831637 0.00564999974519014 16 -0.0223052017390728 -0.176616817712784 -0.0670799985527992 0.190238654613495
-0.0210500004813075 0.0404499965831637 0.00564999974519014 16 0.0174170285463333 -0.170219659805298 -0.1104391887784 0.203653872013092
-0.0182500004395843 0.0404499965831637 0.00564999974519014 16 0.0590971559286118 -0.140481904149055 -0.154296100139618 0.216875374317169
-0.015450000397861 0.0404499965831637 0.00564999974519014 16 0.0920883491635323 -0.0885828733444214 -0.185141503810883 0.224954590201378
-0.0126500003561378 0.0404499965831637 0.00564999974519014 16 0.109443172812462 -0.0215660948306322 -0.193156167864799 0.223052024841309
-0.0098500003144145 0.0404499965831637 0.00564999974519014 16 0.103669211268425 0.0536060407757759 -0.170223727822304 0.206390485167503
-0.00705000027269125 0.0404499965831637 0.00564999974519014 16 0.0771757885813713 0.123054645955563 -0.118956044316292 0.187747403979301
-0.004250000230968 0.0404499965831637 0.00564999974519014 16 0.035485565662384 0.178169056773186 -0.0505214408040047 0.188562601804733
-0.00145000018924474 0.0404499965831637 0.00564999974519014 16 -0.00822884403169155 0.206808909773827 0.02018216624856 0.207954227924347
0.0013499998524785 0.0404499965831637 0.00564999974519014 16 -0.0471607074141502 0.208538129925728 0.0816067084670067 0.228849172592163
0.00414999989420176 0.0404499965831637 0.00564999974519014 16 -0.073157049715519 0.182496756315231 0.128485321998596 0.234873369336128
0.006949999935925 0.0404499965831637 0.00564999974519014 16 -0.0918940156698227 0.139550372958183 0.164348483085632 0.234369888901711
0.00974999997764826 0.0404499965831637 0.00564999974519014 16 -0.102851629257202 0.0848855823278427 0.189768403768539 0.231939792633057
0.0125500000193715 0.0404499965831637 0.00564999974519014 16 -0.109407491981983 0.0284773465245962 0.203336760401726 0.23265166580677
0.0153500000610948 0.0404499965831637 0.00564999974519014 16 -0.104935593903065 -0.0281913559883833 0.196366772055626 0.22442401945591
0.018150000102818 0.0404499965831637 0.00564999974519014 16 -0.0884929671883583 -0.0801942422986031 0.167170584201813 0.205446168780327
0.0209500001445413 0.0404499965831637 0.00564999974519014 16 -0.0597987845540047 -0.12640680372715 0.115895591676235 0.181621491909027
0.0237500001862645 0.0404499965831637 0.00564999974519014 16 -0.0205882769078016 -0.163229063153267 0.0502530820667744 0.172026097774506
0.0265500002279878 0.0404499965831637 0.00564999974519014 16 0.0263087674975395 -0.186063528060913 -0.0259539466351271 0.189698174595833
0.029350000269711 0.0404499965831637 0.00564999974519014 16 0.077370673418045 -0.194489225745201 -0.0993088185787201 0.231677621603012
0.0321500003114343 0.0404499965831637 0.00564999974519014 16 0.118943907320499 -0.191588848829269 -0.157523825764656 0.275077611207962
0.0349500003531575 0.0404499965831637 0.00564999974519014 16 0.139045178890228 -0.188767686486244 -0.182598903775215 0.297168582677841
-0.0350500006899238 0.0376499965414405 0.00564999974519014 16 -0.0748780742287636 -0.0864356309175491 0.0255929939448833 0.117187224328518
-0.0322500006482005 0.0376499965414405 0.00564999974519014 16 -0.0678806081414223 -0.0964004024863243 0.0130003085359931 0.118616282939911
-0.0294500006064773 0.0376499965414405 0.00564999974519014 16 -0.0507001131772995 -0.114681623876095 -0.016008859500289 0.126406714320183
-0.026650000564754 0.0376499965414405 0.00564999974519014 16 -0.030130498111248 -0.133198633790016 -0.0471685752272606 0.144480437040329
-0.0238500005230308 0.0376499965414405 0.00564999974519014 16 -0.00562003813683987 -0.139394238591194 -0.0797970592975616 0.160716861486435
-0.0210500004813075 0.0376499965414405 0.00564999974519014 16 0.0183654427528381 -0.129216223955154 -0.108714878559113 0.169861853122711
-0.0182500004395843 0.0376499965414405 0.00564999974519014 16 0.0417834892868996 -0.100931949913502 -0.1350227445364 0.173678606748581
-0.015450000397861 0.0376499965414405 0.00564999974519014 16 0.0575026459991932 -0.0572268590331078 -0.149984866380692 0.170519575476646
-0.0126500003561378 0.0376499965414405 0.00564999974519014 16 0.0615482665598392 -0.00357404397800565 -0.145036473870277 0.157596126198769
-0.0098500003144145 0.0376499965414405 0.00564999974519014 16 0.0500184670090675 0.0550933107733727 -0.115531392395496 0.137421324849129
-0.00705000027269125 0.0376499965414405 0.00564999974519014 16 0.0256872586905956 0.108222395181656 -0.0637549459934235 0.128205358982086