TITLE="DynamicStudio Exported Data"
VARIABLES= "X (m)[m]" "Y (m)[m]" "Z (m)[m]" "Status[-]" "U[-]" "V[-]" "W[-]" "Length[-]"
ZONE T="DynamicStudio Data" F=POINT
-0.0350500006899238 0.0600499968752265 0.00564999974519014 16 -0.0571860894560814 -0.37964802980423 0.108065575361252 0.398849666118622
-0.0322500006482005 0.0600499968752265 0.00564999974519014 16 -0.0914188846945763 -0.371479868888855 0.147054329514503 0.409853249788284
-0.0294500006064773 0.0600499968752265 0.00564999974519014 16 -0.173334360122681 -0.341181337833405 0.241832599043846 0.452694714069366
-0.026650000564754 0.0600499968752265 0.00564999974519014 16 -0.260777056217194 -0.270530134439468 0.340605646371841 0.507152259349823
-0.0238500005230308 0.0600499968752265 0.00564999974519014 16 -0.332178145647049 -0.153151303529739 0.419506222009659 0.556581616401672
-0.0210500004813075 0.0600499968752265 0.00564999974519014 16 -0.352320224046707 -0.00364420609548688 0.438949108123779 0.562866866588593
-0.0182500004395843 0.0600499968752265 0.00564999974519014 16 -0.319501429796219 0.146183520555496 0.40185135602951 0.533793330192566
-0.015450000397861 0.0600499968752265 0.00564999974519014 16 -0.235124707221985 0.262361973524094 0.310089141130447 0.469332218170166
-0.0126500003561378 0.0600499968752265 0.00564999974519014 16 -0.122993245720863 0.321499019861221 0.186243325471878 0.391376465559006
-0.0098500003144145 0.0600499968752265 0.00564999974519014 16 -0.00788855832070112 0.31926816701889 0.0546151734888554 0.324001848697662
-0.00705000027269125 0.0600499968752265 0.00564999974519014 16 0.0900128185749054 0.27032744884491 -0.0626763850450516 0.291731983423233
-0.004250000230968 0.0600499968752265 0.00564999974519014 16 0.160126626491547 0.196852266788483 -0.147932156920433 0.293726533651352
-0.00145000018924474 0.0600499968752265 0.00564999974519014 16 0.203257188200951 0.119633048772812 -0.203789308667183 0.311697989702225
0.0013499998524785 0.0600499968752265 0.00564999974519014 16 0.224957510828972 0.0475968383252621 -0.237257719039917 0.330397605895996
0.00414999989420176 0.0600499968752265 0.00564999974519014 16 0.232403233647346 -0.0201663244515657 -0.262484550476074 0.351163893938065
0.006949999935925 0.0600499968752265 0.00564999974519014 16 0.227596342563629 -0.0909784138202667 -0.279740899801254 0.3719302713871
0.00974999997764826 0.0600499968752265 0.00564999974519014 16 0.209489062428474 -0.170448586344719 -0.283059895038605 0.391230493783951
0.0125500000193715 0.0600499968752265 0.00564999974519014 16 0.166567906737328 -0.254356920719147 -0.254456400871277 0.3964723944664
0.0153500000610948 0.0600499968752265 0.00564999974519014 16 0.0963709726929665 -0.328844457864761 -0.185331702232361 0.389581680297852
0.018150000102818 0.0600499968752265 0.00564999974519014 16 -0.00465150596573949 -0.370463252067566 -0.0743422955274582 0.377877533435822
0.0209500001445413 0.0600499968752265 0.00564999974519014 16 -0.118024401366711 -0.358860045671463 0.0633929595351219 0.383052140474319
0.0237500001862645 0.0600499968752265 0.00564999974519014 16 -0.222583785653114 -0.282360404729843 0.198747649788857 0.410818159580231
0.0265500002279878 0.0600499968752265 0.00564999974519014 16 -0.29266282916069 -0.149947866797447 0.305967688560486 0.449168264865875
0.029350000269711 0.0600499968752265 0.00564999974519014 16 -0.320134371519089 0.00842282082885504 0.363049119710922 0.484109103679657
0.0321500003114343 0.0600499968752265 0.00564999974519014 16 -0.318081110715866 0.143110752105713 0.381902366876602 0.517209529876709
0.0349500003531575 0.0600499968752265 0.00564999974519014 16 -0.309784561395645 0.206374943256378 0.380086421966553 0.531998813152313
-0.0350500006899238 0.0572499968335032 0.00564999974519014 16 -0.0518438331782818 -0.4072625041008 0.0979568138718605 0.422073543071747
-0.0322500006482005 0.0572499968335032 0.00564999974519014 16 -0.0798413902521133 -0.398959666490555 0.132208555936813 0.427811354398727
-0.0294500006064773 0.0572499968335032 0.00564999974519014 16 -0.146124258637428 -0.36675888299942 0.213284447789192 0.448725581169128
-0.026650000564754 0.0572499968335032 0.00564999974519014 16 -0.21806426346302 -0.291217774152756 0.298427283763885 0.470551460981369
-0.0238500005230308 0.0572499968335032 0.00564999974519014 16 -0.278638273477554 -0.166206136345863 0.368224233388901 0.490767627954483
-0.0210500004813075 0.0572499968335032 0.00564999974519014 16 -0.298068344593048 -0.00598917622119188 0.388876914978027 0.490005999803543
-0.0182500004395843 0.0572499968335032 0.00564999974519014 16 -0.274101585149765 0.155334919691086 0.36209499835968 0.479972302913666
-0.015450000397861 0.0572499968335032 0.00564999974519014 16 -0.205321580171585 0.281353771686554 0.286849975585938 0.451220363378525
-0.0126500003561378 0.0572499968335032 0.00564999974519014 16 -0.111742354929447 0.346018522977829 0.180259361863136 0.405843079090118
-0.0098500003144145 0.0572499968335032 0.00564999974519014 16 -0.0130438189953566 0.343503206968307 0.0628654211759567 0.349451929330826
-0.00705000027269125 0.0572499968335032 0.00564999974519014 16 0.0720246285200119 0.289490878582001 -0.0447114296257496 0.301648199558258
-0.004250000230968 0.0572499968335032 0.00564999974519014 16 0.133530348539352 0.207783684134483 -0.124133169651031 0.276429831981659
-0.00145000018924474 0.0572499968335032 0.00564999974519014 16 0.171243265271187 0.123344942927361 -0.175991728901863 0.274793237447739
0.0013499998524785 0.0572499968335032 0.00564999974519014 16 0.189135387539864 0.0461805202066898 -0.205545976758003 0.283114790916443
0.00414999989420176 0.0572499968335032 0.00564999974519014 16 0.195069894194603 -0.0239166505634785 -0.22653603553772 0.299904733896255
0.006949999935925 0.0572499968335032 0.00564999974519014 16 0.190546005964279 -0.0967390686273575 -0.239989921450615 0.321343123912811
0.00974999997764826 0.0572499968335032 0.00564999974519014 16 0.176577016711235 -0.179482012987137 -0.243285715579987 0.350115954875946
0.0125500000193715 0.0572499968335032 0.00564999974519014 16 0.14304131269455 -0.268737286329269 -0.222387403249741 0.377010196447372
0.0153500000610948 0.0572499968335032 0.00564999974519014 16 0.087603397667408 -0.349923342466354 -0.169070929288864 0.398378819227219
0.018150000102818 0.0572499968335032 0.00564999974519014 16 0.0057276701554656 -0.397354453802109 -0.0796615183353424 0.405301541090012
0.0209500001445413 0.0572499968335032 0.00564999974519014 16 -0.0879540890455246 -0.387599259614944 0.0354275032877922 0.399029076099396
0.0237500001862645 0.0572499968335032 0.00564999974519014 16 -0.175667554140091 -0.306811481714249 0.152391567826271 0.384987741708755
0.0265500002279878 0.0572499968335032 0.00564999974519014 16 -0.234970986843109 -0.163409158587456 0.247108802199364 0.378122568130493
0.029350000269711 0.0572499968335032 0.00564999974519014 16 -0.259034484624863 0.00814109575003386 0.300349503755569 0.396705150604248
0.0321500003114343 0.0572499968335032 0.00564999974519014 16 -0.258303105831146 0.154782876372337 0.319730997085571 0.439210802316666
0.0349500003531575 0.0572499968335032 0.00564999974519014 16 -0.252425014972687 0.222639083862305 0.320533812046051 0.464788645505905
-0.0350500006899238 0.05444999679178 0.00564999974519014 16 -0.0469297468662262 -0.450260400772095 0.0880463123321533 0.461182147264481
-0.0322500006482005 0.05444999679178 0.00564999974519014 16 -0.0574268698692322 -0.441488653421402 0.105016559362411 0.457426011562347
-0.0294500006064773 0.05444999679178 0.00564999974519014 16 -0.0865338817238808 -0.40631103515625 0.150150924921036 0.441726237535477
-0.026650000564754 0.05444999679178 0.00564999974519014 16 -0.119433991611004 -0.322443872690201 0.199043586850166 0.39730703830719
-0.0238500005230308 0.05444999679178 0.00564999974519014 16 -0.152895122766495 -0.184168472886086 0.245174288749695 0.342644691467285
-0.0210500004813075 0.05444999679178 0.00564999974519014 16 -0.167287424206734 -0.00619446625933051 0.265407174825668 0.313790410757065
-0.0182500004395843 0.05444999679178 0.00564999974519014 16 -0.161754429340363 0.173449203372002 0.25968325138092 0.351688086986542
-0.015450000397861 0.05444999679178 0.00564999974519014 16 -0.129021733999252 0.314190894365311 0.221210584044456 0.40533521771431
-0.0126500003561378 0.05444999679178 0.00564999974519014 16 -0.0798668339848518 0.386822640895844 0.155149534344673 0.424360513687134
-0.0098500003144145 0.05444999679178 0.00564999974519014 16 -0.0223675388842821 0.383544504642487 0.0740888640284538 0.391274660825729
-0.00705000027269125 0.05444999679178 0.00564999974519014 16 0.0298723839223385 0.322200536727905 -0.00618875492364168 0.323641538619995
-0.004250000230968 0.05444999679178 0.00564999974519014 16 0.0686825215816498 0.228015899658203 -0.0665436387062073 0.247258141636848
-0.00145000018924474 0.05444999679178 0.00564999974519014 16 0.0921154022216797 0.131846100091934 -0.105675220489502 0.192447125911713
0.0013499998524785 0.05444999679178 0.00564999974519014 16 0.101453863084316 0.0451516397297382 -0.124821305274963 0.167068600654602
0.00414999989420176 0.05444999679178 0.00564999974519014 16 0.104566678404808 -0.030242495238781 -0.13659693300724 0.17466402053833
0.006949999935925 0.05444999679178 0.00564999974519014 16 0.102605760097504 -0.107094585895538 -0.143689408898354 0.206503838300705
0.00974999997764826 0.05444999679178 0.00564999974519014 16 0.0992835238575935 -0.194929614663124 -0.149755969643593 0.265106827020645
0.0125500000193715 0.05444999679178 0.00564999974519014 16 0.0866411849856377 -0.291487187147141 -0.147248804569244 0.337866365909576
0.0153500000610948 0.05444999679178 0.00564999974519014 16 0.063616655766964 -0.381954252719879 -0.130303740501404 0.408552557229996
0.018150000102818 0.05444999679178 0.00564999974519014 16 0.0240421015769243 -0.436870962381363 -0.0904403701424599 0.446781486272812
0.0209500001445413 0.05444999679178 0.00564999974519014 16 -0.0233430415391922 -0.429001450538635 -0.0294714886695147 0.430645674467087
0.0237500001862645 0.05444999679178 0.00564999974519014 16 -0.0696712285280228 -0.341439634561539 0.0411860644817352 0.350900828838348
0.0265500002279878 0.05444999679178 0.00564999974519014 16 -0.101327911019325 -0.181958109140396 0.104335404932499 0.23294198513031
0.029350000269711 0.05444999679178 0.00564999974519014 16 -0.115865744650364 0.00883181858807802 0.145967409014702 0.186572656035423
0.0321500003114343 0.05444999679178 0.00564999974519014 16 -0.117802262306213 0.17310331761837 0.165682226419449 0.267006993293762
0.0349500003531575 0.05444999679178 0.00564999974519014 16 -0.116201318800449 0.248026818037033 0.1698317527771 0.322277635335922
-0.0350500006899238 0.0516499967500567 0.00564999974519014 16 -0.0408749915659428 -0.457930475473404 0.0586440041661263 0.463476210832596
-0.0322500006482005 0.0516499967500567 0.00564999974519014 16 -0.0319114774465561 -0.447427302598953 0.0575626902282238 0.452242195606232
-0.0294500006064773 0.0516499967500567 0.00564999974519014 16 -0.0180689059197903 -0.408552348613739 0.0600907802581787 0.413342952728271
-0.026650000564754 0.0516499967500567 0.00564999974519014 16 -0.00434176530689001 -0.320537447929382 0.065302737057209 0.327150672674179
-0.0238500005230308 0.0516499967500567 0.00564999974519014 16 -0.00258207879960537 -0.179137781262398 0.0795336440205574 0.196016877889633
-0.0210500004813075 0.0516499967500567 0.00564999974519014 16 -0.00657847290858626 0.000864811765495688 0.095690943300724 0.095920704305172
-0.0182500004395843 0.0516499967500567 0.00564999974519014 16 -0.0179384127259254 0.182330593466759 0.111703403294086 0.21457839012146
-0.015450000397861 0.0516499967500567 0.00564999974519014 16 -0.0256293509155512 0.324968844652176 0.117878764867783 0.346636712551117
-0.0126500003561378 0.0516499967500567 0.00564999974519014 16 -0.0294978003948927 0.400578528642654 0.10531148314476 0.415239423513412
-0.0098500003144145 0.0516499967500567 0.00564999974519014 16 -0.0254235342144966 0.399083167314529 0.0768944546580315 0.407217979431152
-0.00705000027269125 0.0516499967500567 0.00564999974519014 16 -0.0186346434056759 0.337093532085419 0.0392968282103539 0.339887529611588
-0.004250000230968 0.0516499967500567 0.00564999974519014 16 -0.0133047495037317 0.237603351473808 0.0105391023680568 0.238208815455437
-0.00145000018924474 0.0516499967500567 0.00564999974519014 16 -0.0111827598884702 0.134210720658302 -0.00748585537075996 0.134883686900139
0.0013499998524785 0.0516499967500567 0.00564999974519014 16 -0.0119769005104899 0.0398524962365627 -0.0134390527382493 0.0437295734882355
0.00414999989420176 0.0516499967500567 0.00564999974519014 16 -0.0101953875273466 -0.0407151430845261 -0.0172585602849722 0.0453820079565048
0.006949999935925 0.0516499967500567 0.00564999974519014 16 -0.00635005533695221 -0.120322309434414 -0.0214269254356623 0.122380122542381
0.00974999997764826 0.0516499967500567 0.00564999974519014 16 0.00339368497952819 -0.208517014980316 -0.0332189165055752 0.21117377281189
0.0125500000193715 0.0516499967500567 0.00564999974519014 16 0.0146736819297075 -0.303570091724396 -0.0518378503620625 0.308313608169556
0.0153500000610948 0.0516499967500567 0.00564999974519014 16 0.0290725696831942 -0.392309933900833 -0.076700322329998 0.400793254375458
0.018150000102818 0.0516499967500567 0.00564999974519014 16 0.0398144796490669 -0.445707827806473 -0.0955982729792595 0.457580238580704
0.0209500001445413 0.0516499967500567 0.00564999974519014 16 0.0491518415510654 -0.436979621648788 -0.102844692766666 0.451601713895798
0.0237500001862645 0.0516499967500567 0.00564999974519014 16 0.0546873733401299 -0.348433047533035 -0.0942211151123047 0.365067005157471
0.0265500002279878 0.0516499967500567 0.00564999974519014 16 0.0591314733028412 -0.186918944120407 -0.0769122540950775 0.210596114397049
0.029350000269711 0.0516499967500567 0.00564999974519014 16 0.0591215826570988 0.00550991948693991 -0.0562820807099342 0.0818131566047668
0.0321500003114343 0.0516499967500567 0.00564999974519014 16 0.0556174553930759 0.171768352389336 -0.0390332341194153 0.184719413518906
0.0349500003531575 0.0516499967500567 0.00564999974519014 16 0.0522262789309025 0.246602833271027 -0.030916778370738 0.253961384296417
-0.0350500006899238 0.0488499967083335 0.00564999974519014 16 -0.0370658114552498 -0.413077086210251 0.0320751033723354 0.41597518324852
-0.0322500006482005 0.0488499967083335 0.00564999974519014 16 -0.0128108682110906 -0.401169627904892 0.0140847805887461 0.40162119269371
-0.0294500006064773 0.0488499967083335 0.00564999974519014 16 0.0348621532320976 -0.361432075500488 -0.0205635726451874 0.363691329956055
-0.026650000564754 0.0488499967083335 0.00564999974519014 16 0.0856743678450584 -0.277063012123108 -0.0519306696951389 0.294619768857956
-0.0238500005230308 0.0488499967083335 0.00564999974519014 16 0.117697291076183 -0.145917758345604 -0.0662838220596313 0.198842108249664
-0.0210500004813075 0.0488499967083335 0.00564999974519014 16 0.125302717089653 0.0168743152171373 -0.0566117912530899 0.138529449701309
-0.0182500004395843 0.0488499967083335 0.00564999974519014 16 0.10532533377409 0.179150819778442 -0.0280314218252897 0.209700271487236
-0.015450000397861 0.0488499967083335 0.00564999974519014 16 0.068374015390873 0.305835574865341 0.0108212260529399 0.31357216835022
-0.0126500003561378 0.0488499967083335 0.00564999974519014 16 0.0230431538075209 0.374261796474457 0.041904229670763 0.37730473279953
-0.0098500003144145 0.0488499967083335 0.00564999974519014 16 -0.0183751415461302 0.374654591083527 0.0611882209777832 0.380062758922577
-0.00705000027269125 0.0488499967083335 0.00564999974519014 16 -0.0527601763606071 0.320739805698395 0.0672657340764999 0.331937253475189
-0.004250000230968 0.0488499967083335 0.00564999974519014 16 -0.0790838152170181 0.229636967182159 0.0730220451951027 0.253613084554672
-0.00145000018924474 0.0488499967083335 0.00564999974519014 16 -0.0975391939282417 0.130765065550804 0.0797215700149536 0.181573465466499
0.0013499998524785 0.0488499967083335 0.00564999974519014 16 -0.10723439604044 0.0361254140734673 0.0881119072437286 0.143415376543999
0.00414999989420176 0.0488499967083335 0.00564999974519014 16 -0.105789877474308 -0.0462169162929058 0.0907864570617676 0.146866202354431
0.006949999935925 0.0488499967083335 0.00564999974519014 16 -0.0950844660401344 -0.125119477510452 0.0852897688746452 0.178802356123924
0.00974999997764826 0.0488499967083335 0.00564999974519014 16 -0.073496587574482 -0.206378266215324 0.0640222057700157 0.228238001465797
0.0125500000193715 0.0488499967083335 0.00564999974519014 16 -0.0436656065285206 -0.288921803236008 0.0261533856391907 0.2933709025383
0.0153500000610948 0.0488499967083335 0.00564999974519014 16 -0.00202792719937861 -0.36247056722641 -0.0321828126907349 0.363902121782303
0.018150000102818 0.0488499967083335 0.00564999974519014 16 0.0460683181881905 -0.404011279344559 -0.0975738316774368 0.418172270059586
0.0209500001445413 0.0488499967083335 0.00564999974519014 16 0.0999504551291466 -0.391891330480576 -0.16186834871769 0.435626298189163
0.0237500001862645 0.0488499967083335 0.00564999974519014 16 0.148508846759796 -0.311860382556915 -0.207869201898575 0.403139412403107
0.0265500002279878 0.0488499967083335 0.00564999974519014 16 0.184069752693176 -0.169409677386284 -0.232017621397972 0.341194212436676
0.029350000269711 0.0488499967083335 0.00564999974519014 16 0.198507040739059 -0.000538830703590065 -0.233208820223808 0.306254297494888
0.0321500003114343 0.0488499967083335 0.00564999974519014 16 0.195915400981903 0.145667910575867 -0.22163999080658 0.329736679792404
0.0349500003531575 0.0488499967083335 0.00564999974519014 16 0.190254285931587 0.211961939930916 -0.212856397032738 0.355573356151581
-0.0350500006899238 0.0460499966666102 0.00564999974519014 16 -0.0318825654685497 -0.329902678728104 -0.00590906199067831 0.331492364406586
-0.0322500006482005 0.0460499966666102 0.00564999974519014 16 -0.00328516354784369 -0.316829025745392 -0.028145594522357 0.318093687295914
-0.0294500006064773 0.0460499966666102 0.00564999974519014 16 0.0551798641681671 -0.278099179267883 -0.0756286382675171 0.293434232473373
-0.026650000564754 0.0460499966666102 0.00564999974519014 16 0.118161909282207 -0.20389449596405 -0.119488157331944 0.264220803976059
-0.0238500005230308 0.0460499966666102 0.00564999974519014 16 0.162714555859566 -0.0950346514582634 -0.146201699972153 0.238500624895096
-0.0210500004813075 0.0460499966666102 0.00564999974519014 16 0.177889660000801 0.0348677150905132 -0.141709417104721 0.230091378092766
-0.0182500004395843 0.0460499966666102 0.00564999974519014 16 0.159944757819176 0.16167713701725 -0.11212146282196 0.253560721874237
-0.015450000397861 0.0460499966666102 0.00564999974519014 16 0.115915648639202 0.260003417730331 -0.0616107806563377 0.291262924671173
-0.0126500003561378 0.0460499966666102 0.00564999974519014 16 0.0562574602663517 0.3146111369133 -0.00904757250100374 0.319729447364807
-0.0098500003144145 0.0460499966666102 0.00564999974519014 16 -0.00474101724103093 0.31706365942955 0.0374014936387539 0.319297224283218
-0.00705000027269125 0.0460499966666102 0.00564999974519014 16 -0.05991405621171 0.276271283626556 0.0727227032184601 0.291897416114807
-0.004250000230968 0.0460499966666102 0.00564999974519014 16 -0.103571839630604 0.202177330851555 0.102328889071941 0.249146550893784
-0.00145000018924474 0.0460499966666102 0.00564999974519014 16 -0.133858665823936 0.116975657641888 0.126849696040154 0.218385651707649
0.0013499998524785 0.0460499966666102 0.00564999974519014 16 -0.147330746054649 0.0301619339734316 0.143274798989296 0.207710757851601
0.00414999989420176 0.0460499966666102 0.00564999974519014 16 -0.144607856869698 -0.0482852905988693 0.146663621068001 0.211549326777458
0.006949999935925 0.0460499966666102 0.00564999974519014 16 -0.128990262746811 -0.121896460652351 0.136358499526978 0.223809897899628
0.00974999997764826 0.0460499966666102 0.00564999974519014 16 -0.101952038705349 -0.190535545349121 0.107252851128578 0.241249233484268
0.0125500000193715 0.0460499966666102 0.00564999974519014 16 -0.0653629302978516 -0.253248423337936 0.0605807192623615 0.268471777439117
0.0153500000610948 0.0460499966666102 0.00564999974519014 16 -0.0145008629187942 -0.303129851818085 -0.0106387846171856 0.303662925958633
0.018150000102818 0.0460499966666102 0.00564999974519014 16 0.0468668602406979 -0.327037215232849 -0.0943125635385513 0.343576341867447
0.0209500001445413 0.0460499966666102 0.00564999974519014 16 0.117376632988453 -0.311332046985626 -0.183780089020729 0.380105286836624
0.0237500001862645 0.0460499966666102 0.00564999974519014 16 0.183503285050392 -0.247213929891586 -0.258136540651321 0.401774376630783
0.0265500002279878 0.0460499966666102 0.00564999974519014 16 0.232501581311226 -0.138804003596306 -0.306425631046295 0.40892568230629
0.029350000269711 0.0460499966666102 0.00564999974519014 16 0.254792660474777 -0.0113994209095836 -0.324339240789413 0.412607789039612
0.0321500003114343 0.0460499966666102 0.00564999974519014 16 0.254021555185318 0.0988061651587486 -0.319967120885849 0.420319616794586
0.0349500003531575 0.0460499966666102 0.00564999974519014 16 0.248784512281418 0.149331331253052 -0.313875883817673 0.427447855472565
-0.0350500006899238 0.043249996624887 0.00564999974519014 16 -0.0270722191780806 -0.247094884514809 -0.0301654413342476 0.250397175550461
-0.0322500006482005 0.043249996624887 0.00564999974519014 16 -0.0020726767834276 -0.23367503285408 -0.0508205704391003 0.239146485924721
-0.0294500006064773 0.043249996624887 0.00564999974519014 16 0.0492399819195271 -0.19776763021946 -0.0944596827030182 0.224631354212761
-0.026650000564754 0.043249996624887 0.00564999974519014 16 0.104333706200123 -0.134954661130905 -0.133646503090858 0.216701805591583
-0.0238500005230308 0.043249996624887 0.00564999974519014 16 0.144189208745956 -0.0489139221608639 -0.158134981989861 0.219521701335907
-0.0210500004813075 0.043249996624887 0.00564999974519014 16 0.159211695194244 0.049114428460598 -0.154246762394905 0.227052092552185
-0.0182500004395843 0.043249996624887 0.00564999974519014 16 0.146485596895218 0.14205239713192 -0.128707692027092 0.241252109408379
-0.015450000397861 0.043249996624887 0.00564999974519014 16 0.110784113407135 0.213145896792412 -0.0834326073527336 0.254293709993362
-0.0126500003561378 0.043249996624887 0.00564999974519014 16 0.0591368675231934 0.252826154232025 -0.0321969464421272 0.261638820171356
-0.0098500003144145 0.043249996624887 0.00564999974519014 16 0.00386590627022088 0.254950672388077 0.0167919490486383 0.255532324314117
-0.00705000027269125 0.043249996624887 0.00564999974519014 16 -0.0484961457550526 0.225628763437271 0.0596993900835514 0.238378345966339
-0.004250000230968 0.043249996624887 0.00564999974519014 16 -0.0894640386104584 0.169882208108902 0.0947500467300415 0.214105933904648
-0.00145000018924474 0.043249996624887 0.00564999974519014 16 -0.11765942722559 0.102096185088158 0.123553775250912 0.198828846216202
0.0013499998524785 0.043249996624887 0.00564999974519014 16 -0.128582239151001 0.0283556059002876 0.140671849250793 0.192681089043617
0.00414999989420176 0.043249996624887 0.00564999974519014 16 -0.125128865242004 -0.0417482703924179 0.142850413918495 0.194438651204109
0.006949999935925 0.043249996624887 0.00564999974519014 16 -0.109187498688698 -0.106854818761349 0.129280388355255 0.200133144855499
0.00974999997764826 0.043249996624887 0.00564999974519014 16 -0.083841510117054 -0.162443086504936 0.0967516899108887 0.206828534603119
0.0125500000193715 0.043249996624887 0.00564999974519014 16 -0.0507469661533833 -0.207171380519867 0.0501137487590313 0.219104140996933
0.0153500000610948 0.043249996624887 0.00564999974519014 16 -0.00657540094107389 -0.237284168601036 -0.0167239457368851 0.237963661551476
0.018150000102818 0.043249996624887 0.00564999974519014 16 0.0469854585826397 -0.247425064444542 -0.0950251668691635 0.269177615642548
0.0209500001445413 0.043249996624887 0.00564999974519014 16 0.1094990670681 -0.231171876192093 -0.180383294820786 0.312999397516251
0.0237500001862645 0.043249996624887 0.00564999974519014 16 0.169763565063477 -0.184041440486908 -0.254765897989273 0.357206642627716
0.0265500002279878 0.043249996624887 0.00564999974519014 16 0.21473017334938 -0.109340563416481 -0.304107159376144 0.388002008199692
0.029350000269711 0.043249996624887 0.00564999974519014 16 0.236255183815956 -0.0225005559623241 -0.326579570770264 0.403704106807709
0.0321500003114343 0.043249996624887 0.00564999974519014 16 0.236638739705086 0.0522353649139404 -0.326725274324417 0.406787216663361
0.0349500003531575 0.043249996624887 0.00564999974519014 16 0.233292996883392 0.087064690887928 -0.324428468942642 0.40897399187088
-0.0350500006899238 0.0404499965831637 0.00564999974519014 16 -0.0202922523021698 -0.183680266141891 -0.0536358878016472 0.192424073815346
-0.0322500006482005 0.0404499965831637 0.00564999974519014 16 -0.00285428017377853 -0.170583233237267 -0.066727988421917 0.183192282915115
-0.0294500006064773 0.0404499965831637 0.00564999974519014 16 0.0323536694049835 -0.137925133109093 -0.0952006578445435 0.170684695243835
-0.026650000564754 0.0404499965831637 0.00564999974519014 16 0.0698093399405479 -0.0850579813122749 -0.119181051850319 0.162210747599602
-0.0238500005230308 0.0404499965831637 0.00564999974519014 16 0.095884345471859 -0.0175782013684511 -0.132963359355927 0.16486981511116
-0.0210500004813075 0.0404499965831637 0.00564999974519014 16 0.105775699019432 0.0561013780534267 -0.126608908176422 0.174257501959801
-0.0182500004395843 0.0404499965831637 0.00564999974519014 16 0.0970498695969582 0.124219991266727 -0.1056869328022 0.18978676199913
-0.015450000397861 0.0404499965831637 0.00564999974519014 16 0.0738587006926537 0.175637364387512 -0.0706078931689262 0.203197106719017
-0.0126500003561378 0.0404499965831637 0.00564999974519014 16 0.038602028042078 0.203965872526169 -0.0294266473501921 0.209661930799484
-0.0098500003144145 0.0404499965831637 0.00564999974519014 16 0.000810526194982231 0.204467579722404 0.0103125339373946 0.204729080200195
-0.00705000027269125 0.0404499965831637 0.00564999974519014 16 -0.0358909144997597 0.181626349687576 0.0471699982881546 0.191053122282028
-0.004250000230968 0.0404499965831637 0.00564999974519014 16 -0.0629249587655067 0.138785555958748 0.0754349157214165 0.170033544301987
-0.00145000018924474 0.0404499965831637 0.00564999974519014 16 -0.0801720693707466 0.08519047498703 0.0973957926034927 0.152219966053963
0.0013499998524785 0.0404499965831637 0.00564999974519014 16 -0.0834350436925888 0.0250181276351213 0.106616444885731 0.137674897909164
0.00414999989420176 0.0404499965831637 0.00564999974519014 16 -0.077664352953434 -0.0345930345356464 0.103265874087811 0.133762001991272
0.006949999935925 0.0404499965831637 0.00564999974519014 16 -0.0634796395897865 -0.0895481556653976 0.0868486911058426 0.139968678355217
0.00974999997764826 0.0404499965831637 0.00564999974519014 16 -0.0444797873497009 -0.134052559733391 0.0567974671721458 0.152231708168983
0.0125500000193715 0.0404499965831637 0.00564999974519014 16 -0.0197794456034899 -0.165709763765335 0.0171558856964111 0.167765542864799
0.0153500000610948 0.0404499965831637 0.00564999974519014 16 0.0119245098903775 -0.183330833911896 -0.0351811833679676 0.187056422233582
0.018150000102818 0.0404499965831637 0.00564999974519014 16 0.0503958091139793 -0.185797959566116 -0.0956326201558113 0.21495632827282
0.0209500001445413 0.0404499965831637 0.00564999974519014 16 0.0950463712215424 -0.171522498130798 -0.161143615841866 0.253812998533249
0.0237500001862645 0.0404499965831637 0.00564999974519014 16 0.138673841953278 -0.138317674398422 -0.220775604248047 0.295134007930756
0.0265500002279878 0.0404499965831637 0.00564999974519014 16 0.171234846115112 -0.0889470279216766 -0.261042892932892 0.324617207050323
0.029350000269711 0.0404499965831637 0.00564999974519014 16 0.186693415045738 -0.0322260521352291 -0.281902968883514 0.33965015411377
0.0321500003114343 0.0404499965831637 0.00564999974519014 16 0.186442717909813 0.016134126111865 -0.284061670303345 0.340164989233017
0.0349500003531575 0.0404499965831637 0.00564999974519014 16 0.184102684259415 0.0388696901500225 -0.284313946962357 0.34093850851059
-0.0350500006899238 0.0376499965414405 0.00564999974519014 16 -0.00933386478573084 -0.144193753600121 -0.0665438696742058 0.159081891179085
-0.0322500006482005 0.0376499965414405 0.00564999974519014 16 0.00132793956436217 -0.131752580404282 -0.0740104243159294 0.151122629642487
-0.0294500006064773 0.0376499965414405 0.00564999974519014 16 0.0221291407942772 -0.102197796106339 -0.0901698097586632 0.138074919581413
-0.026650000564754 0.0376499965414405 0.00564999974519014 16 0.0434737764298916 -0.0565747693181038 -0.101439036428928 0.124018348753452
-0.0238500005230308 0.0376499965414405 0.00564999974519014 16 0.0559001937508583 -0.00135358434636146 -0.105350695550442 0.119270421564579
-0.0210500004813075 0.0376499965414405 0.00564999974519014 16 0.0583199933171272 0.0572372637689114 -0.0949411988258362 0.125264346599579
-0.0182500004395843 0.0376499965414405 0.00564999974519014 16 0.0493445135653019 0.110492415726185 -0.0753795653581619 0.142567649483681
-0.015450000397861 0.0376499965414405 0.00564999974519014 16 0.0336081199347973 0.150348708033562 -0.0474213920533657 0.161192521452904
-0.0126500003561378 0.0376499965414405 0.00564999974519014 16 0.0111985011026263 0.171634912490845 -0.016245361417532 0.172765344381332
-0.0098500003144145 0.0376499965414405 0.00564999974519014 16 -0.0110771143808961 0.170610472559929 0.0122994389384985 0.171411529183388
-0.00705000027269125 0.0376499965414405 0.00564999974519014 16 -0.031180115416646 0.150793939828873 0.0378565564751625 0.158569008111954