TITLE="DynamicStudio Exported Data"
VARIABLES= "X (m)[m]" "Y (m)[m]" "Z (m)[m]" "Status[-]" "U[-]" "V[-]" "W[-]" "Length[-]"
ZONE T="DynamicStudio Data" F=POINT
-0.0350500006899238 0.0600499968752265 0.00564999974519014 16 0.13300159573555 0.315083801746368 -0.220355987548828 0.4068463742733
-0.0322500006482005 0.0600499968752265 0.00564999974519014 16 0.143726319074631 0.282752305269241 -0.235876396298409 0.395276874303818
-0.0294500006064773 0.0600499968752265 0.00564999974519014 16 0.16977196931839 0.214240983128548 -0.267566502094269 0.382509529590607
-0.026650000564754 0.0600499968752265 0.00564999974519014 16 0.193389356136322 0.139766961336136 -0.306005239486694 0.388037979602814
-0.0238500005230308 0.0600499968752265 0.00564999974519014 16 0.214117303490639 0.0746904015541077 -0.336403131484985 0.40569931268692
-0.0210500004813075 0.0600499968752265 0.00564999974519014 16 0.223874166607857 0.0253005307167768 -0.351791739463806 0.417752534151077
-0.0182500004395843 0.0600499968752265 0.00564999974519014 16 0.22644168138504 -0.0234763193875551 -0.351508349180222 0.41879004240036
-0.015450000397861 0.0600499968752265 0.00564999974519014 16 0.216304585337639 -0.0774795264005661 -0.329509258270264 0.401705235242844
-0.0126500003561378 0.0600499968752265 0.00564999974519014 16 0.186387196183205 -0.144690483808517 -0.290389776229858 0.374168068170547
-0.0098500003144145 0.0600499968752265 0.00564999974519014 16 0.128900796175003 -0.209930062294006 -0.215360343456268 0.32720959186554
-0.00705000027269125 0.0600499968752265 0.00564999974519014 16 0.0373964086174965 -0.2652807533741 -0.109130933880806 0.289278298616409
-0.004250000230968 0.0600499968752265 0.00564999974519014 16 -0.0776441916823387 -0.280210047960281 0.0327889434993267 0.292611360549927
-0.00145000018924474 0.0600499968752265 0.00564999974519014 16 -0.197222128510475 -0.245495155453682 0.177685424685478 0.361575096845627
0.0013499998524785 0.0600499968752265 0.00564999974519014 16 -0.287741392850876 -0.146003022789955 0.292318791151047 0.435387492179871
0.00414999989420176 0.0600499968752265 0.00564999974519014 16 -0.324461042881012 -0.00651136739179492 0.343244314193726 0.472370654344559
0.006949999935925 0.0600499968752265 0.00564999974519014 16 -0.295730322599411 0.144084557890892 0.316886305809021 0.456764400005341
0.00974999997764826 0.0600499968752265 0.00564999974519014 16 -0.214274987578392 0.264040648937225 0.231323152780533 0.411268323659897
0.0125500000193715 0.0600499968752265 0.00564999974519014 16 -0.103247739374638 0.326566487550735 0.110364072024822 0.359841614961624
0.0153500000610948 0.0600499968752265 0.00564999974519014 16 0.00867276825010777 0.324455499649048 -0.00700191734358668 0.324646890163422
0.018150000102818 0.0600499968752265 0.00564999974519014 16 0.101663686335087 0.267919659614563 -0.0964379385113716 0.302351981401443
0.0209500001445413 0.0600499968752265 0.00564999974519014 16 0.162749692797661 0.187890887260437 -0.147116377949715 0.288848876953125
0.0237500001862645 0.0600499968752265 0.00564999974519014 16 0.193718776106834 0.110174186527729 -0.163810968399048 0.276585161685944
0.0265500002279878 0.0600499968752265 0.00564999974519014 16 0.20395790040493 0.048366367816925 -0.172235146164894 0.271298885345459
0.029350000269711 0.0600499968752265 0.00564999974519014 16 0.204400792717934 0.00365930749103427 -0.17675144970417 0.27024832367897
0.0321500003114343 0.0600499968752265 0.00564999974519014 16 0.203541576862335 -0.0292057804763317 -0.187263339757919 0.278118163347244
0.0349500003531575 0.0600499968752265 0.00564999974519014 16 0.20159150660038 -0.0418983399868011 -0.189744412899017 0.279995620250702
-0.0350500006899238 0.0572499968335032 0.00564999974519014 16 0.114642284810543 0.328755527734756 -0.216649174690247 0.410073071718216
-0.0322500006482005 0.0572499968335032 0.00564999974519014 16 0.123350232839584 0.29459473490715 -0.231422036886215 0.394407778978348
-0.0294500006064773 0.0572499968335032 0.00564999974519014 16 0.143980026245117 0.221392244100571 -0.261339366436005 0.371541440486908
-0.026650000564754 0.0572499968335032 0.00564999974519014 16 0.163090541958809 0.141446143388748 -0.29311004281044 0.3640316426754
-0.0238500005230308 0.0572499968335032 0.00564999974519014 16 0.179728239774704 0.0731792226433754 -0.315635502338409 0.370517492294312
-0.0210500004813075 0.0572499968335032 0.00564999974519014 16 0.186710387468338 0.0227009486407042 -0.322128474712372 0.373018562793732
-0.0182500004395843 0.0572499968335032 0.00564999974519014 16 0.187850177288055 -0.0253298785537481 -0.31710284948349 0.369436770677567
-0.015450000397861 0.0572499968335032 0.00564999974519014 16 0.179327070713043 -0.0800703093409538 -0.29591691493988 0.355156689882278
-0.0126500003561378 0.0572499968335032 0.00564999974519014 16 0.156405568122864 -0.150003850460052 -0.261430263519287 0.339572727680206
-0.0098500003144145 0.0572499968335032 0.00564999974519014 16 0.110795326530933 -0.220793053507805 -0.19632451236248 0.315544754266739
-0.00705000027269125 0.0572499968335032 0.00564999974519014 16 0.0358418747782707 -0.282122015953064 -0.103278130292892 0.302562117576599
-0.004250000230968 0.0572499968335032 0.00564999974519014 16 -0.0617722161114216 -0.302253365516663 0.0200639925897121 0.309152811765671
-0.00145000018924474 0.0572499968335032 0.00564999974519014 16 -0.165644600987434 -0.267874509096146 0.147316381335258 0.347702473402023
0.0013499998524785 0.0572499968335032 0.00564999974519014 16 -0.246772930026054 -0.163670659065247 0.24930015206337 0.387085944414139
0.00414999989420176 0.0572499968335032 0.00564999974519014 16 -0.281935662031174 -0.0126376254484057 0.297439515590668 0.41002157330513
0.006949999935925 0.0572499968335032 0.00564999974519014 16 -0.260082185268402 0.152106553316116 0.278294384479523 0.410154730081558
0.00974999997764826 0.0572499968335032 0.00564999974519014 16 -0.192603632807732 0.28608113527298 0.206451863050461 0.40194645524025
0.0125500000193715 0.0572499968335032 0.00564999974519014 16 -0.0990796461701393 0.355670034885406 0.103372506797314 0.383410781621933
0.0153500000610948 0.0572499968335032 0.00564999974519014 16 -0.00548995519056916 0.351971626281738 0.00231102528050542 0.352022022008896
0.018150000102818 0.0572499968335032 0.00564999974519014 16 0.0734051465988159 0.286117136478424 -0.0729416236281395 0.304256170988083
0.0209500001445413 0.0572499968335032 0.00564999974519014 16 0.126036509871483 0.19562616944313 -0.116073593497276 0.260053604841232
0.0237500001862645 0.0572499968335032 0.00564999974519014 16 0.154774248600006 0.111535795032978 -0.130718111991882 0.231262892484665
0.0265500002279878 0.0572499968335032 0.00564999974519014 16 0.165946155786514 0.0494031049311161 -0.139738008379936 0.222498312592506
0.029350000269711 0.0572499968335032 0.00564999974519014 16 0.168281331658363 0.00756823224946856 -0.146148964762688 0.223014354705811
0.0321500003114343 0.0572499968335032 0.00564999974519014 16 0.168427124619484 -0.0219025984406471 -0.156869158148766 0.231204137206078
0.0349500003531575 0.0572499968335032 0.00564999974519014 16 0.167313724756241 -0.0334836952388287 -0.160413652658463 0.234195604920387
-0.0350500006899238 0.05444999679178 0.00564999974519014 16 0.0738198682665825 0.352676212787628 -0.192111730575562 0.408334165811539
-0.0322500006482005 0.05444999679178 0.00564999974519014 16 0.0760542973875999 0.314446359872818 -0.202067896723747 0.381434410810471
-0.0294500006064773 0.05444999679178 0.00564999974519014 16 0.0830735340714455 0.233206525444984 -0.222388908267021 0.332781195640564
-0.026650000564754 0.05444999679178 0.00564999974519014 16 0.0899168327450752 0.144432976841927 -0.238436967134476 0.292913138866425
-0.0238500005230308 0.05444999679178 0.00564999974519014 16 0.0968043804168701 0.0701156035065651 -0.247009247541428 0.274410009384155
-0.0210500004813075 0.05444999679178 0.00564999974519014 16 0.0978720858693123 0.0161809995770454 -0.240882322192192 0.260509252548218
-0.0182500004395843 0.05444999679178 0.00564999974519014 16 0.0962250828742981 -0.0325986109673977 -0.229479402303696 0.250963598489761
-0.015450000397861 0.05444999679178 0.00564999974519014 16 0.0907578021287918 -0.088750384747982 -0.208464384078979 0.24407172203064
-0.0126500003561378 0.05444999679178 0.00564999974519014 16 0.0812845826148987 -0.162524506449699 -0.184330388903618 0.258841842412949
-0.0098500003144145 0.05444999679178 0.00564999974519014 16 0.0609534792602062 -0.240225449204445 -0.142351180315018 0.285810172557831
-0.00705000027269125 0.05444999679178 0.00564999974519014 16 0.0231520105153322 -0.309105664491653 -0.0842740833759308 0.321223378181458
-0.004250000230968 0.05444999679178 0.00564999974519014 16 -0.0331336446106434 -0.33453768491745 -0.00460837269201875 0.336206078529358
-0.00145000018924474 0.05444999679178 0.00564999974519014 16 -0.0990815535187721 -0.299566030502319 0.0808261930942535 0.325714349746704
0.0013499998524785 0.05444999679178 0.00564999974519014 16 -0.156441301107407 -0.187583282589912 0.153803110122681 0.288646429777145
0.00414999989420176 0.05444999679178 0.00564999974519014 16 -0.186644732952118 -0.0192091446369886 0.195797830820084 0.271186351776123
0.006949999935925 0.05444999679178 0.00564999974519014 16 -0.178794130682945 0.167336076498032 0.1926608979702 0.311587750911713
0.00974999997764826 0.05444999679178 0.00564999974519014 16 -0.141708835959435 0.322587102651596 0.153331160545349 0.384258091449738
0.0125500000193715 0.05444999679178 0.00564999974519014 16 -0.0869676917791367 0.403015047311783 0.0906408354640007 0.42213773727417
0.0153500000610948 0.05444999679178 0.00564999974519014 16 -0.035051554441452 0.397936195135117 0.02922747656703 0.400544703006744
0.018150000102818 0.05444999679178 0.00564999974519014 16 0.0109276147559285 0.319888442754745 -0.0142515087500215 0.32039213180542
0.0209500001445413 0.05444999679178 0.00564999974519014 16 0.0427282713353634 0.214986279606819 -0.0398271270096302 0.222780168056488
0.0237500001862645 0.05444999679178 0.00564999974519014 16 0.0645823925733566 0.120249979197979 -0.0502931661903858 0.145465970039368
0.0265500002279878 0.05444999679178 0.00564999974519014 16 0.0763214603066444 0.0548436641693115 -0.0621368326246738 0.112666673958302
0.029350000269711 0.05444999679178 0.00564999974519014 16 0.0823324844241142 0.015154137276113 -0.0726362019777298 0.110834576189518
0.0321500003114343 0.05444999679178 0.00564999974519014 16 0.0853386297821999 -0.0106924790889025 -0.0837178602814674 0.120023712515831
0.0349500003531575 0.05444999679178 0.00564999974519014 16 0.0858224928379059 -0.0206256993114948 -0.0876549407839775 0.124395772814751
-0.0350500006899238 0.0516499967500567 0.00564999974519014 16 0.0235522333532572 0.353975296020508 -0.137702494859695 0.380545943975449
-0.0322500006482005 0.0516499967500567 0.00564999974519014 16 0.0180159285664558 0.316050827503204 -0.141045019030571 0.346563696861267
-0.0294500006064773 0.0516499967500567 0.00564999974519014 16 0.00821387860924006 0.234583258628845 -0.149328798055649 0.278201133012772
-0.026650000564754 0.0516499967500567 0.00564999974519014 16 -0.000168637139722705 0.143448606133461 -0.148553073406219 0.206507980823517
-0.0238500005230308 0.0516499967500567 0.00564999974519014 16 -0.00560724781826138 0.0665525123476982 -0.142356067895889 0.157244801521301
-0.0210500004813075 0.0516499967500567 0.00564999974519014 16 -0.0108929798007011 0.00929357018321753 -0.124655462801456 0.125475138425827
-0.0182500004395843 0.0516499967500567 0.00564999974519014 16 -0.0153656480833888 -0.0416157729923725 -0.109821602702141 0.118443071842194
-0.015450000397861 0.0516499967500567 0.00564999974519014 16 -0.0164127144962549 -0.0996249914169312 -0.0933865457773209 0.137533858418465
-0.0126500003561378 0.0516499967500567 0.00564999974519014 16 -0.0100363316014409 -0.173594102263451 -0.0840252116322517 0.193121403455734
-0.0098500003144145 0.0516499967500567 0.00564999974519014 16 -6.44795181869995e-06 -0.250485718250275 -0.0703035816550255 0.260164737701416
-0.00705000027269125 0.0516499967500567 0.00564999974519014 16 0.00753358704969287 -0.317325264215469 -0.0568261481821537 0.322461307048798
-0.004250000230968 0.0516499967500567 0.00564999974519014 16 0.00343197048641741 -0.341927886009216 -0.0345225743949413 0.343683391809464
-0.00145000018924474 0.0516499967500567 0.00564999974519014 16 -0.0130382515490055 -0.306008905172348 -0.00608935160562396 0.306347072124481
0.0013499998524785 0.0516499967500567 0.00564999974519014 16 -0.0368033275008202 -0.193762674927711 0.0264062061905861 0.198986813426018
0.00414999989420176 0.0516499967500567 0.00564999974519014 16 -0.0568997114896774 -0.0218217130750418 0.0573156885802746 0.0836591422557831
0.006949999935925 0.0516499967500567 0.00564999974519014 16 -0.0634563267230988 0.170357063412666 0.0722493156790733 0.195622593164444
0.00974999997764826 0.0516499967500567 0.00564999974519014 16 -0.0621187277138233 0.333335876464844 0.074313148856163 0.347122430801392
0.0125500000193715 0.0516499967500567 0.00564999974519014 16 -0.0547241270542145 0.419521450996399 0.0630918070673943 0.427754074335098
0.0153500000610948 0.0516499967500567 0.00564999974519014 16 -0.0545176491141319 0.416891545057297 0.05455556884408 0.423965841531754
0.018150000102818 0.0516499967500567 0.00564999974519014 16 -0.0519944541156292 0.337299913167953 0.0513439811766148 0.345124393701553
0.0209500001445413 0.0516499967500567 0.00564999974519014 16 -0.0501984655857086 0.228643268346786 0.050361406058073 0.239444985985756
0.0237500001862645 0.0516499967500567 0.00564999974519014 16 -0.0412768721580505 0.129601344466209 0.0471203103661537 0.143946558237076
0.0265500002279878 0.0516499967500567 0.00564999974519014 16 -0.0320600531995296 0.0611905679106712 0.0364050790667534 0.0780862495303154
0.029350000269711 0.0516499967500567 0.00564999974519014 16 -0.0233800709247589 0.0197840202599764 0.0246868710964918 0.039337981492281
0.0321500003114343 0.0516499967500567 0.00564999974519014 16 -0.0179254729300737 -0.00603373302146792 0.0143627217039466 0.0237490274012089
0.0349500003531575 0.0516499967500567 0.00564999974519014 16 -0.0156571716070175 -0.0158141367137432 0.00990616716444492 0.0243591070175171
-0.0350500006899238 0.0488499967083335 0.00564999974519014 16 -0.00998752377927303 0.329197436571121 -0.0645664781332016 0.335618138313293
-0.0322500006482005 0.0488499967083335 0.00564999974519014 16 -0.0233904514461756 0.294197648763657 -0.0591874308884144 0.301002532243729
-0.0294500006064773 0.0488499967083335 0.00564999974519014 16 -0.0503460131585598 0.220245257019997 -0.0510668717324734 0.231625825166702
-0.026650000564754 0.0488499967083335 0.00564999974519014 16 -0.0753217339515686 0.135365173220634 -0.0341142155230045 0.158621802926064
-0.0238500005230308 0.0488499967083335 0.00564999974519014 16 -0.093939945101738 0.060910027474165 -0.0193194467574358 0.113613314926624
-0.0210500004813075 0.0488499967083335 0.00564999974519014 16 -0.104507282376289 0.000776266446337104 -0.00138723501004279 0.104519367218018
-0.0182500004395843 0.0488499967083335 0.00564999974519014 16 -0.109801098704338 -0.0534413158893585 0.00833457708358765 0.122399836778641
-0.015450000397861 0.0488499967083335 0.00564999974519014 16 -0.10584119707346 -0.111536890268326 0.0153492679819465 0.154526486992836
-0.0126500003561378 0.0488499967083335 0.00564999974519014 16 -0.0873034819960594 -0.178596168756485 0.00915927067399025 0.199003472924232
-0.0098500003144145 0.0488499967083335 0.00564999974519014 16 -0.0541432350873947 -0.244087696075439 -0.00427927635610104 0.250057190656662
-0.00705000027269125 0.0488499967083335 0.00564999974519014 16 -0.0110063599422574 -0.296309918165207 -0.0307902544736862 0.298108607530594
-0.004250000230968 0.0488499967083335 0.00564999974519014 16 0.0278956480324268 -0.311341911554337 -0.0576681829988956 0.317864090204239
-0.00145000018924474 0.0488499967083335 0.00564999974519014 16 0.0531266331672668 -0.273291558027267 -0.0768923908472061 0.288830667734146
0.0013499998524785 0.0488499967083335 0.00564999974519014 16 0.0590227730572224 -0.170690596103668 -0.0778345167636871 0.19666513800621
0.00414999989420176 0.0488499967083335 0.00564999974519014 16 0.0495161153376102 -0.0152051551267505 -0.0572621636092663 0.0772139728069305
0.006949999935925 0.0488499967083335 0.00564999974519014 16 0.0337772555649281 0.157885998487473 -0.0289142522960901 0.164027214050293
0.00974999997764826 0.0488499967083335 0.00564999974519014 16 0.00921559054404497 0.305760651826859 0.00666129402816296 0.305972039699554
0.0125500000193715 0.0488499967083335 0.00564999974519014 16 -0.019901342689991 0.386737823486328 0.0388801395893097 0.389196425676346
0.0153500000610948 0.0488499967083335 0.00564999974519014 16 -0.0607063993811607 0.390649080276489 0.076811745762825 0.402730703353882
0.018150000102818 0.0488499967083335 0.00564999974519014 16 -0.0956204384565353 0.32655730843544 0.108781300485134 0.357234269380569
0.0209500001445413 0.0488499967083335 0.00564999974519014 16 -0.121910236775875 0.23298305273056 0.13044399023056 0.293528288602829
0.0237500001862645 0.0488499967083335 0.00564999974519014 16 -0.127960860729218 0.140571445226669 0.133575230836868 0.2323287576437
0.0265500002279878 0.0488499967083335 0.00564999974519014 16 -0.124099887907505 0.0698176175355911 0.124174416065216 0.188930064439774
0.029350000269711 0.0488499967083335 0.00564999974519014 16 -0.114591658115387 0.021063718944788 0.112293921411037 0.161817342042923
0.0321500003114343 0.0488499967083335 0.00564999974519014 16 -0.107141397893429 -0.0103863077238202 0.103625759482384 0.149417042732239
0.0349500003531575 0.0488499967083335 0.00564999974519014 16 -0.103254579007626 -0.0228765401989222 0.100242674350739 0.145716980099678
-0.0350500006899238 0.0460499966666102 0.00564999974519014 16 -0.0147076258435845 0.276769757270813 -0.00640273606404662 0.277234196662903
-0.0322500006482005 0.0460499966666102 0.00564999974519014 16 -0.0325667411088943 0.24905052781105 0.00499867741018534 0.251220524311066
-0.0294500006064773 0.0460499966666102 0.00564999974519014 16 -0.0701230838894844 0.189815521240234 0.0247816052287817 0.203865900635719
-0.026650000564754 0.0460499966666102 0.00564999974519014 16 -0.106652863323689 0.118772320449352 0.0507491491734982 0.167502760887146
-0.0238500005230308 0.0460499966666102 0.00564999974519014 16 -0.134052097797394 0.0522716045379639 0.0693189948797226 0.159710392355919
-0.0210500004813075 0.0460499966666102 0.00564999974519014 16 -0.147177129983902 -0.00623643025755882 0.0823798179626465 0.168779253959656
-0.0182500004395843 0.0460499966666102 0.00564999974519014 16 -0.150411888957024 -0.0605443455278873 0.0822179913520813 0.181794255971909
-0.015450000397861 0.0460499966666102 0.00564999974519014 16 -0.140901058912277 -0.115392625331879 0.0754586830735207 0.19713594019413
-0.0126500003561378 0.0460499966666102 0.00564999974519014 16 -0.115324273705482 -0.171069830656052 0.0562121383845806 0.213832601904869
-0.0098500003144145 0.0460499966666102 0.00564999974519014 16 -0.0718184262514114 -0.219673782587051 0.0267802625894547 0.232662081718445
-0.00705000027269125 0.0460499966666102 0.00564999974519014 16 -0.0141991404816508 -0.252120792865753 -0.0196047257632017 0.253280192613602
-0.004250000230968 0.0460499966666102 0.00564999974519014 16 0.0435581132769585 -0.255199998617172 -0.0717758983373642 0.26865616440773
-0.00145000018924474 0.0460499966666102 0.00564999974519014 16 0.0882023945450783 -0.217384666204453 -0.116404071450233 0.261888653039932
0.0013499998524785 0.0460499966666102 0.00564999974519014 16 0.109065413475037 -0.132500842213631 -0.135561987757683 0.21869795024395
0.00414999989420176 0.0460499966666102 0.00564999974519014 16 0.105346418917179 -0.00849510170519352 -0.121753327548504 0.161226257681847
0.006949999935925 0.0460499966666102 0.00564999974519014 16 0.0854690968990326 0.127948641777039 -0.0868206918239594 0.176673859357834
0.00974999997764826 0.0460499966666102 0.00564999974519014 16 0.0492784194648266 0.245234549045563 -0.0341170951724052 0.252452611923218
0.0125500000193715 0.0460499966666102 0.00564999974519014 16 0.00382188521325588 0.313831120729446 0.0220202971249819 0.314625918865204
0.0153500000610948 0.0460499966666102 0.00564999974519014 16 -0.0553282387554646 0.32638618350029 0.0855888053774834 0.341927766799927
0.018150000102818 0.0460499966666102 0.00564999974519014 16 -0.109014369547367 0.286927551031113 0.137864828109741 0.336479216814041
0.0209500001445413 0.0460499966666102 0.00564999974519014 16 -0.151620373129845 0.220178753137589 0.173564612865448 0.318735152482986
0.0237500001862645 0.0460499966666102 0.00564999974519014 16 -0.168862730264664 0.144608706235886 0.183398231863976 0.288203418254852
0.0265500002279878 0.0460499966666102 0.00564999974519014 16 -0.170500800013542 0.0776236206293106 0.177972629666328 0.258399337530136
0.029350000269711 0.0460499966666102 0.00564999974519014 16 -0.161309942603111 0.022972309961915 0.167270064353943 0.233512103557587
0.0321500003114343 0.0460499966666102 0.00564999974519014 16 -0.152391791343689 -0.0152290975674987 0.157958447933197 0.22001376748085
0.0349500003531575 0.0460499966666102 0.00564999974519014 16 -0.147238835692406 -0.0312987193465233 0.154160335659981 0.21546296775341
-0.0350500006899238 0.043249996624887 0.00564999974519014 16 0.0060147070325911 0.21740885078907 0.0221050474792719 0.218612477183342
-0.0322500006482005 0.043249996624887 0.00564999974519014 16 -0.0134793352335691 0.196250930428505 0.0362890847027302 0.20003254711628
-0.0294500006064773 0.043249996624887 0.00564999974519014 16 -0.054781086742878 0.15118744969368 0.0642613470554352 0.173170819878578
-0.026650000564754 0.043249996624887 0.00564999974519014 16 -0.097115732729435 0.0952374562621117 0.0958722829818726 0.166412547230721
-0.0238500005230308 0.043249996624887 0.00564999974519014 16 -0.128688260912895 0.0389888398349285 0.115598738193512 0.177324175834656
-0.0210500004813075 0.043249996624887 0.00564999974519014 16 -0.142373755574226 -0.0144953643903136 0.120592229068279 0.18714402616024
-0.0182500004395843 0.043249996624887 0.00564999974519014 16 -0.141960516571999 -0.0650186613202095 0.107850082218647 0.189767897129059
-0.015450000397861 0.043249996624887 0.00564999974519014 16 -0.127458363771439 -0.112382188439369 0.0866426602005959 0.190741568803787
-0.0126500003561378 0.043249996624887 0.00564999974519014 16 -0.099997878074646 -0.154669880867004 0.0572699271142483 0.19287870824337
-0.0098500003144145 0.043249996624887 0.00564999974519014 16 -0.0586995556950569 -0.187169000506401 0.0222206544131041 0.197412326931953
-0.00705000027269125 0.043249996624887 0.00564999974519014 16 -0.007060541305691 -0.203463271260262 -0.0238603949546814 0.204979196190834
-0.004250000230968 0.043249996624887 0.00564999974519014 16 0.0453421995043755 -0.197252944111824 -0.0741227716207504 0.21554309129715
-0.00145000018924474 0.043249996624887 0.00564999974519014 16 0.0864031538367271 -0.161933958530426 -0.116954989731312 0.217638656497002
0.0013499998524785 0.043249996624887 0.00564999974519014 16 0.106071457266808 -0.0955487787723541 -0.136331036686897 0.197400286793709
0.00414999989420176 0.043249996624887 0.00564999974519014 16 0.102114729583263 -0.00422072829678655 -0.125442177057266 0.161805346608162
0.006949999935925 0.043249996624887 0.00564999974519014 16 0.0825296938419342 0.0949553400278091 -0.0928404554724693 0.156355410814285
0.00974999997764826 0.043249996624887 0.00564999974519014 16 0.0480016283690929 0.180811032652855 -0.0415329337120056 0.191629245877266
0.0125500000193715 0.043249996624887 0.00564999974519014 16 0.005079235881567 0.23549285531044 0.0180263891816139 0.236236393451691
0.0153500000610948 0.043249996624887 0.00564999974519014 16 -0.0514069870114326 0.254272997379303 0.086977057158947 0.273610025644302
0.018150000102818 0.043249996624887 0.00564999974519014 16 -0.105121664702892 0.237461179494858 0.146616891026497 0.298219531774521
0.0209500001445413 0.043249996624887 0.00564999974519014 16 -0.150304526090622 0.197864383459091 0.188498020172119 0.311886608600616
0.0237500001862645 0.043249996624887 0.00564999974519014 16 -0.171864688396454 0.142756998538971 0.202269837260246 0.30138036608696
0.0265500002279878 0.043249996624887 0.00564999974519014 16 -0.176262557506561 0.0847977176308632 0.197608262300491 0.278043448925018
0.029350000269711 0.043249996624887 0.00564999974519014 16 -0.167479440569878 0.0298625361174345 0.185992836952209 0.252060443162918
0.0321500003114343 0.043249996624887 0.00564999974519014 16 -0.157213717699051 -0.0115410452708602 0.175707370042801 0.236055985093117
0.0349500003531575 0.043249996624887 0.00564999974519014 16 -0.151413142681122 -0.0297756269574165 0.172205448150635 0.231229856610298
-0.0350500006899238 0.0404499965831637 0.00564999974519014 16 0.02389907091856 0.159927576780319 0.0277728866785765 0.16407111287117
-0.0322500006482005 0.0404499965831637 0.00564999974519014 16 0.00729308510199189 0.144829243421555 0.04057377576828 0.15058197081089
-0.0294500006064773 0.0404499965831637 0.00564999974519014 16 -0.0285027027130127 0.111947983503342 0.0673257261514664 0.133706793189049
-0.026650000564754 0.0404499965831637 0.00564999974519014 16 -0.0663793236017227 0.0693134516477585 0.0955169573426247 0.135403320193291
-0.0238500005230308 0.0404499965831637 0.00564999974519014 16 -0.0944471061229706 0.023830559104681 0.111714489758015 0.148216992616653
-0.0210500004813075 0.0404499965831637 0.00564999974519014 16 -0.105662770569324 -0.0213417019695044 0.110856831073761 0.154626414179802
-0.0182500004395843 0.0404499965831637 0.00564999974519014 16 -0.101907521486282 -0.0640783682465553 0.0915835499763489 0.151257157325745
-0.015450000397861 0.0404499965831637 0.00564999974519014 16 -0.0846826285123825 -0.102258987724781 0.0638463795185089 0.147324159741402
-0.0126500003561378 0.0404499965831637 0.00564999974519014 16 -0.0585543811321259 -0.133239224553108 0.0324030704796314 0.14910152554512
-0.0098500003144145 0.0404499965831637 0.00564999974519014 16 -0.0251289177685976 -0.153911113739014 0.000908060814253986 0.155951648950577
-0.00705000027269125 0.0404499965831637 0.00564999974519014 16 0.0113914515823126 -0.160705253481865 -0.0344158187508583 0.164743408560753
-0.004250000230968 0.0404499965831637 0.00564999974519014 16 0.0466799959540367 -0.150596380233765 -0.0715876966714859 0.173156261444092
-0.00145000018924474 0.0404499965831637 0.00564999974519014 16 0.0725129693746567 -0.120744332671165 -0.102076299488544 0.173945084214211
0.0013499998524785 0.0404499965831637 0.00564999974519014 16 0.0827153399586678 -0.0704955831170082 -0.114494331181049 0.157861992716789
0.00414999989420176 0.0404499965831637 0.00564999974519014 16 0.0750881135463715 -0.00525387190282345 -0.103581935167313 0.12804314494133
0.006949999935925 0.0404499965831637 0.00564999974519014 16 0.0562408789992332 0.0651640668511391 -0.0749233961105347 0.114117950201035
0.00974999997764826 0.0404499965831637 0.00564999974519014 16 0.0278586819767952 0.127225384116173 -0.0319344326853752 0.134097769856453
0.0125500000193715 0.0404499965831637 0.00564999974519014 16 -0.00572702474892139 0.170973986387253 0.0206283051520586 0.17230911552906
0.0153500000610948 0.0404499965831637 0.00564999974519014 16 -0.0496395900845528 0.19256991147995 0.0828020498156548 0.215414583683014
0.018150000102818 0.0404499965831637 0.00564999974519014 16 -0.093835361301899 0.190507248044014 0.141772344708443 0.255337983369827
0.0209500001445413 0.0404499965831637 0.00564999974519014 16 -0.133098781108856 0.170756533741951 0.186475560069084 0.28573802113533
0.0237500001862645 0.0404499965831637 0.00564999974519014 16 -0.154865264892578 0.135054722428322 0.206186011433601 0.291093975305557
0.0265500002279878 0.0404499965831637 0.00564999974519014 16 -0.159956723451614 0.090895801782608 0.204624280333519 0.275171399116516
0.029350000269711 0.0404499965831637 0.00564999974519014 16 -0.15195831656456 0.042931217700243 0.192073598504066 0.248649731278419
0.0321500003114343 0.0404499965831637 0.00564999974519014 16 -0.140294954180717 0.00345582002773881 0.178258880972862 0.226871877908707
0.0349500003531575 0.0404499965831637 0.00564999974519014 16 -0.1341542750597 -0.0150573384016752 0.172505378723145 0.219048395752907
-0.0350500006899238 0.0376499965414405 0.00564999974519014 16 0.0274450462311506 0.114740297198296 0.0295863784849644 0.121630258858204
-0.0322500006482005 0.0376499965414405 0.00564999974519014 16 0.0152685269713402 0.103990085422993 0.0385712943971157 0.111958965659142
-0.0294500006064773 0.0376499965414405 0.00564999974519014 16 -0.0109607046470046 0.0797870606184006 0.0578427463769913 0.0991559103131294
-0.026650000564754 0.0376499965414405 0.00564999974519014 16 -0.0391149111092091 0.0470447018742561 0.0790552273392677 0.0999645441770554
-0.0238500005230308 0.0376499965414405 0.00564999974519014 16 -0.0600076168775558 0.00999644957482815 0.0901218876242638 0.108732685446739
-0.0210500004813075 0.0376499965414405 0.00564999974519014 16 -0.0673294514417648 -0.0279915481805801 0.0859236493706703 0.11269274353981
-0.0182500004395843 0.0376499965414405 0.00564999974519014 16 -0.0609916970133781 -0.063382662832737 0.064493827521801 0.109072461724281
-0.015450000397861 0.0376499965414405 0.00564999974519014 16 -0.0430567413568497 -0.0929849445819855 0.0354520604014397 0.1084293872118
-0.0126500003561378 0.0376499965414405 0.00564999974519014 16 -0.0193246733397245 -0.114835411310196 0.00489781657233834 0.116553008556366
-0.0098500003144145 0.0376499965414405 0.00564999974519014 16 0.00631516752764583 -0.127129837870598 -0.0226304288953543 0.129282683134079
-0.00705000027269125 0.0376499965414405 0.00564999974519014 16 0.0293081030249596 -0.128738209605217 -0.04798723757267 0.140482261776924