TITLE="DynamicStudio Exported Data"
VARIABLES= "X (m)[m]" "Y (m)[m]" "Z (m)[m]" "Status[-]" "U[-]" "V[-]" "W[-]" "Length[-]"
ZONE T="DynamicStudio Data" F=POINT
-0.0350500006899238 0.0600499968752265 0.00564999974519014 16 0.240088522434235 0.0203261058777571 -0.288963049650192 0.376238346099854
-0.0322500006482005 0.0600499968752265 0.00564999974519014 16 0.235253915190697 0.00501960050314665 -0.283810704946518 0.368670731782913
-0.0294500006064773 0.0600499968752265 0.00564999974519014 16 0.221194252371788 -0.0332719013094902 -0.269184321165085 0.349991589784622
-0.026650000564754 0.0600499968752265 0.00564999974519014 16 0.200871929526329 -0.0872694998979568 -0.25788277387619 0.338332712650299
-0.0238500005230308 0.0600499968752265 0.00564999974519014 16 0.174117133021355 -0.151043608784676 -0.249374017119408 0.339585542678833
-0.0210500004813075 0.0600499968752265 0.00564999974519014 16 0.136512622237206 -0.213924616575241 -0.234107807278633 0.345262080430984
-0.0182500004395843 0.0600499968752265 0.00564999974519014 16 0.081653892993927 -0.270323485136032 -0.194604352116585 0.342947512865067
-0.015450000397861 0.0600499968752265 0.00564999974519014 16 0.00660517252981663 -0.304894059896469 -0.117010518908501 0.326642751693726
-0.0126500003561378 0.0600499968752265 0.00564999974519014 16 -0.081440731883049 -0.302278339862823 -0.00923128239810467 0.31319323182106
-0.0098500003144145 0.0600499968752265 0.00564999974519014 16 -0.16581192612648 -0.245610982179642 0.107845731079578 0.31535542011261
-0.00705000027269125 0.0600499968752265 0.00564999974519014 16 -0.226100891828537 -0.132346153259277 0.19978055357933 0.329468339681625
-0.004250000230968 0.0600499968752265 0.00564999974519014 16 -0.249697223305702 0.016592264175415 0.249761328101158 0.35356006026268
-0.00145000018924474 0.0600499968752265 0.00564999974519014 16 -0.230595216155052 0.169309437274933 0.246124938130379 0.377382189035416
0.0013499998524785 0.0600499968752265 0.00564999974519014 16 -0.172132760286331 0.285856604576111 0.195852473378181 0.386913269758224
0.00414999989420176 0.0600499968752265 0.00564999974519014 16 -0.0814316347241402 0.342533826828003 0.102382801473141 0.366664379835129
0.006949999935925 0.0600499968752265 0.00564999974519014 16 0.020056527107954 0.333277642726898 -0.00902236346155405 0.334002465009689
0.00974999997764826 0.0600499968752265 0.00564999974519014 16 0.112074419856071 0.272102683782578 -0.115964539349079 0.3163041472435
0.0125500000193715 0.0600499968752265 0.00564999974519014 16 0.171267494559288 0.188255533576012 -0.183026403188705 0.313482642173767
0.0153500000610948 0.0600499968752265 0.00564999974519014 16 0.197638019919395 0.104116149246693 -0.205633282661438 0.303621470928192
0.018150000102818 0.0600499968752265 0.00564999974519014 16 0.197366118431091 0.0312013793736696 -0.189864873886108 0.275636672973633
0.0209500001445413 0.0600499968752265 0.00564999974519014 16 0.186101943254471 -0.0336107313632965 -0.159061163663864 0.247111454606056
0.0237500001862645 0.0600499968752265 0.00564999974519014 16 0.168751567602158 -0.0991381704807281 -0.127229705452919 0.233437076210976
0.0265500002279878 0.0600499968752265 0.00564999974519014 16 0.1424390822649 -0.16486582159996 -0.0940717309713364 0.237316504120827
0.029350000269711 0.0600499968752265 0.00564999974519014 16 0.108666285872459 -0.227255403995514 -0.0593654029071331 0.258800357580185
0.0321500003114343 0.0600499968752265 0.00564999974519014 16 0.0740659609436989 -0.273645251989365 -0.0276619028300047 0.284837990999222
0.0349500003531575 0.0600499968752265 0.00564999974519014 16 0.057610560208559 -0.29446730017662 -0.0105927651748061 0.300236850976944
-0.0350500006899238 0.0572499968335032 0.00564999974519014 16 0.197962298989296 0.0173224955797195 -0.24303013086319 0.313931167125702
-0.0322500006482005 0.0572499968335032 0.00564999974519014 16 0.193385154008865 0.00255723553709686 -0.238286972045898 0.306895822286606
-0.0294500006064773 0.0572499968335032 0.00564999974519014 16 0.181843653321266 -0.0349817089736462 -0.227841749787331 0.29360294342041
-0.026650000564754 0.0572499968335032 0.00564999974519014 16 0.165428251028061 -0.0892446637153625 -0.22174970805645 0.290695816278458
-0.0238500005230308 0.0572499968335032 0.00564999974519014 16 0.144372195005417 -0.156162247061729 -0.219525128602982 0.305648922920227
-0.0210500004813075 0.0572499968335032 0.00564999974519014 16 0.115352317690849 -0.225030899047852 -0.213297322392464 0.330818384885788
-0.0182500004395843 0.0572499968335032 0.00564999974519014 16 0.0732207298278809 -0.287960141897202 -0.187173560261726 0.351164132356644
-0.015450000397861 0.0572499968335032 0.00564999974519014 16 0.0145675968378782 -0.328143298625946 -0.128055021166801 0.352545499801636
-0.0126500003561378 0.0572499968335032 0.00564999974519014 16 -0.0553772859275341 -0.327608197927475 -0.040657714009285 0.334733963012695
-0.0098500003144145 0.0572499968335032 0.00564999974519014 16 -0.124683909118176 -0.268197923898697 0.0595771111547947 0.301704555749893
-0.00705000027269125 0.0572499968335032 0.00564999974519014 16 -0.177069380879402 -0.147794082760811 0.143819823861122 0.271810233592987
-0.004250000230968 0.0572499968335032 0.00564999974519014 16 -0.201964169740677 0.013183519244194 0.196065783500671 0.281789153814316
-0.00145000018924474 0.0572499968335032 0.00564999974519014 16 -0.192286625504494 0.177737772464752 0.202797800302505 0.331197530031204
0.0013499998524785 0.0572499968335032 0.00564999974519014 16 -0.147685721516609 0.304728776216507 0.16633366048336 0.377276510000229
0.00414999989420176 0.0572499968335032 0.00564999974519014 16 -0.0733008459210396 0.365432679653168 0.0896509513258934 0.383342355489731
0.006949999935925 0.0572499968335032 0.00564999974519014 16 0.0134568819776177 0.35500556230545 -0.0066259098239243 0.355322301387787
0.00974999997764826 0.0572499968335032 0.00564999974519014 16 0.0920942947268486 0.288104265928268 -0.099992148578167 0.318565309047699
0.0125500000193715 0.0572499968335032 0.00564999974519014 16 0.14357203245163 0.19735224545002 -0.160494551062584 0.292094737291336
0.0153500000610948 0.0572499968335032 0.00564999974519014 16 0.165869876742363 0.107160225510597 -0.17947518825531 0.266847282648087
0.018150000102818 0.0572499968335032 0.00564999974519014 16 0.166007086634636 0.0305339526385069 -0.163549512624741 0.23503004014492
0.0209500001445413 0.0572499968335032 0.00564999974519014 16 0.155910551548004 -0.0368471890687943 -0.131792947649956 0.20744925737381
0.0237500001862645 0.0572499968335032 0.00564999974519014 16 0.140773475170135 -0.103876650333405 -0.0986570045351982 0.200850024819374
0.0265500002279878 0.0572499968335032 0.00564999974519014 16 0.117923565208912 -0.172278612852097 -0.064934991300106 0.218637689948082
0.029350000269711 0.0572499968335032 0.00564999974519014 16 0.0896007791161537 -0.23720021545887 -0.0309542696923018 0.255441606044769
0.0321500003114343 0.0572499968335032 0.00564999974519014 16 0.0608817338943481 -0.286271929740906 -0.00181055348366499 0.292679846286774
0.0349500003531575 0.0572499968335032 0.00564999974519014 16 0.0472988486289978 -0.308021515607834 0.0130044296383858 0.311903089284897
-0.0350500006899238 0.05444999679178 0.00564999974519014 16 0.096078023314476 0.00971172377467155 -0.125206544995308 0.158120155334473
-0.0322500006482005 0.05444999679178 0.00564999974519014 16 0.0941971316933632 -0.00351372919976711 -0.125712633132935 0.157127693295479
-0.0294500006064773 0.05444999679178 0.00564999974519014 16 0.0888608247041702 -0.039779607206583 -0.126712918281555 0.159796208143234
-0.026650000564754 0.05444999679178 0.00564999974519014 16 0.0816659480333328 -0.0943631678819656 -0.134365648031235 0.183379009366035
-0.0238500005230308 0.05444999679178 0.00564999974519014 16 0.0732236281037331 -0.166265457868576 -0.147549778223038 0.234044522047043
-0.0210500004813075 0.05444999679178 0.00564999974519014 16 0.0631675273180008 -0.244085133075714 -0.161715388298035 0.299532234668732
-0.0182500004395843 0.05444999679178 0.00564999974519014 16 0.0493122190237045 -0.316153347492218 -0.16605019569397 0.360495924949646
-0.015450000397861 0.05444999679178 0.00564999974519014 16 0.0283014103770256 -0.36282154917717 -0.148953333497047 0.393227100372314
-0.0126500003561378 0.05444999679178 0.00564999974519014 16 0.00026970062754117 -0.363266468048096 -0.109046697616577 0.379280626773834
-0.0098500003144145 0.05444999679178 0.00564999974519014 16 -0.0331489853560925 -0.29844331741333 -0.0482871159911156 0.304136335849762
-0.00705000027269125 0.05444999679178 0.00564999974519014 16 -0.0655151307582855 -0.167952582240105 0.0149340601637959 0.180895894765854
-0.004250000230968 0.05444999679178 0.00564999974519014 16 -0.0914132371544838 0.00898465141654015 0.0687582939863205 0.114737994968891
-0.00145000018924474 0.05444999679178 0.00564999974519014 16 -0.101803347468376 0.189116224646568 0.0958023071289062 0.235174298286438
0.0013499998524785 0.05444999679178 0.00564999974519014 16 -0.0891555622220039 0.331005066633224 0.0915229693055153 0.354809135198593
0.00414999989420176 0.05444999679178 0.00564999974519014 16 -0.0532188042998314 0.39892914891243 0.0549209639430046 0.406193315982819
0.006949999935925 0.05444999679178 0.00564999974519014 16 -0.00293117854744196 0.388657361268997 -0.00205817725509405 0.3886738717556
0.00974999997764826 0.05444999679178 0.00564999974519014 16 0.0442046411335468 0.314232766628265 -0.0604333803057671 0.323030143976212
0.0125500000193715 0.05444999679178 0.00564999974519014 16 0.0770871564745903 0.212340846657753 -0.100157089531422 0.247108295559883
0.0153500000610948 0.05444999679178 0.00564999974519014 16 0.0913449749350548 0.111203379929066 -0.10963249206543 0.180912628769875
0.018150000102818 0.05444999679178 0.00564999974519014 16 0.0932095721364021 0.0270231794565916 -0.0944502130150795 0.135422006249428
0.0209500001445413 0.05444999679178 0.00564999974519014 16 0.0874888822436333 -0.0447457581758499 -0.0646667629480362 0.117636203765869
0.0237500001862645 0.05444999679178 0.00564999974519014 16 0.0785252749919891 -0.113653033971786 -0.0333333797752857 0.1421068161726
0.0265500002279878 0.05444999679178 0.00564999974519014 16 0.0640985295176506 -0.184695228934288 -0.00165713764727116 0.195508807897568
0.029350000269711 0.05444999679178 0.00564999974519014 16 0.0477108173072338 -0.251505047082901 0.0278050694614649 0.25749608874321
0.0321500003114343 0.05444999679178 0.00564999974519014 16 0.0309990718960762 -0.303106009960175 0.0513204373419285 0.308978945016861
0.0349500003531575 0.05444999679178 0.00564999974519014 16 0.0236639119684696 -0.324870258569717 0.0627330392599106 0.331716895103455
-0.0350500006899238 0.0516499967500567 0.00564999974519014 16 -0.0237070471048355 0.00562262535095215 0.0152892377227545 0.0287645403295755
-0.0322500006482005 0.0516499967500567 0.00564999974519014 16 -0.0241385735571384 -0.00772318709641695 0.011425057426095 0.0278001837432384
-0.0294500006064773 0.0516499967500567 0.00564999974519014 16 -0.0237522572278976 -0.0445822551846504 -0.00111426238436252 0.0505271069705486
-0.026650000564754 0.0516499967500567 0.00564999974519014 16 -0.0204593017697334 -0.0995071083307266 -0.0246992576867342 0.104548081755638
-0.0238500005230308 0.0516499967500567 0.00564999974519014 16 -0.0131044397130609 -0.172603964805603 -0.0574780330061913 0.182394027709961
-0.0210500004813075 0.0516499967500567 0.00564999974519014 16 0.000492126564495265 -0.25209704041481 -0.0963735058903694 0.269890755414963
-0.0182500004395843 0.0516499967500567 0.00564999974519014 16 0.0195205472409725 -0.324237704277039 -0.135003641247749 0.351762890815735
-0.015450000397861 0.0516499967500567 0.00564999974519014 16 0.0411879643797874 -0.368658393621445 -0.165222465991974 0.406083643436432
-0.0126500003561378 0.0516499967500567 0.00564999974519014 16 0.0603981986641884 -0.365237921476364 -0.18073844909668 0.411962449550629
-0.0098500003144145 0.0516499967500567 0.00564999974519014 16 0.0688167586922646 -0.29712301492691 -0.169509381055832 0.34892874956131
-0.00705000027269125 0.0516499967500567 0.00564999974519014 16 0.0622878186404705 -0.166506469249725 -0.136809825897217 0.224323660135269
-0.004250000230968 0.0516499967500567 0.00564999974519014 16 0.039490457624197 0.0107245445251465 -0.0864277854561806 0.0956256985664368
-0.00145000018924474 0.0516499967500567 0.00564999974519014 16 0.0103407837450504 0.19075745344162 -0.0397161729633808 0.195122286677361
0.0013499998524785 0.0516499967500567 0.00564999974519014 16 -0.012824815697968 0.335397869348526 -0.00613883836194873 0.335699111223221
0.00414999989420176 0.0516499967500567 0.00564999974519014 16 -0.0225506592541933 0.406011521816254 0.0064611230045557 0.406688630580902
0.006949999935925 0.0516499967500567 0.00564999974519014 16 -0.0187931470572948 0.397711008787155 0.0012911579106003 0.398156881332397
0.00974999997764826 0.0516499967500567 0.00564999974519014 16 -0.0118767488747835 0.323136448860168 -0.0115919625386596 0.323562353849411
0.0125500000193715 0.0516499967500567 0.00564999974519014 16 -0.00505533115938306 0.218092858791351 -0.0221917796880007 0.219277277588844
0.0153500000610948 0.0516499967500567 0.00564999974519014 16 -0.00252285576425493 0.112315058708191 -0.0181843526661396 0.113805569708347
0.018150000102818 0.0516499967500567 0.00564999974519014 16 -0.000730017782188952 0.0232074502855539 -0.00180858292151242 0.0232892613857985
0.0209500001445413 0.0516499967500567 0.00564999974519014 16 -0.00129020365420729 -0.0512496754527092 0.0244964566081762 0.0568178705871105
0.0237500001862645 0.0516499967500567 0.00564999974519014 16 -0.00267980806529522 -0.119375132024288 0.0505201481282711 0.129652947187424
0.0265500002279878 0.0516499967500567 0.00564999974519014 16 -0.00531393010169268 -0.188675075769424 0.0741608366370201 0.202796325087547
0.029350000269711 0.0516499967500567 0.00564999974519014 16 -0.00546664046123624 -0.253192216157913 0.0912330001592636 0.269183307886124
0.0321500003114343 0.0516499967500567 0.00564999974519014 16 -0.00496986601501703 -0.304622441530228 0.100870594382286 0.320927411317825
0.0349500003531575 0.0516499967500567 0.00564999974519014 16 -0.00330541003495455 -0.326026141643524 0.103867262601852 0.342187643051147
-0.0350500006899238 0.0488499967083335 0.00564999974519014 16 -0.121741496026516 0.00299551733769476 0.136737540364265 0.183104127645493
-0.0322500006482005 0.0488499967083335 0.00564999974519014 16 -0.121263600885868 -0.0114853996783495 0.129244104027748 0.1775973290205
-0.0294500006064773 0.0488499967083335 0.00564999974519014 16 -0.117455542087555 -0.049511481076479 0.106826037168503 0.166309922933578
-0.026650000564754 0.0488499967083335 0.00564999974519014 16 -0.1064642816782 -0.103348143398762 0.070376805961132 0.1642205119133
-0.0238500005230308 0.0488499967083335 0.00564999974519014 16 -0.0868461355566978 -0.171037018299103 0.0223629921674728 0.193121761083603
-0.0210500004813075 0.0488499967083335 0.00564999974519014 16 -0.0548312552273273 -0.241194367408752 -0.0355836786329746 0.249894753098488
-0.0182500004395843 0.0488499967083335 0.00564999974519014 16 -0.0107606472447515 -0.300729990005493 -0.100102752447128 0.31713542342186
-0.015450000397861 0.0488499967083335 0.00564999974519014 16 0.0428894385695457 -0.332101076841354 -0.16690431535244 0.374149262905121
-0.0126500003561378 0.0488499967083335 0.00564999974519014 16 0.0976297929883003 -0.320068955421448 -0.225682407617569 0.403618961572647
-0.0098500003144145 0.0488499967083335 0.00564999974519014 16 0.138559728860855 -0.253280341625214 -0.256081163883209 0.385910987854004
-0.00705000027269125 0.0488499967083335 0.00564999974519014 16 0.1548862606287 -0.136096939444542 -0.253371834754944 0.326664090156555
-0.004250000230968 0.0488499967083335 0.00564999974519014 16 0.13888780772686 0.0187556575983763 -0.212817177176476 0.254819065332413
-0.00145000018924474 0.0488499967083335 0.00564999974519014 16 0.1003627628088 0.175686910748482 -0.156542032957077 0.255820214748383
0.0013499998524785 0.0488499967083335 0.00564999974519014 16 0.051511462777853 0.303896516561508 -0.0935624986886978 0.322118699550629
0.00414999989420176 0.0488499967083335 0.00564999974519014 16 0.00682558584958315 0.369946867227554 -0.0405208170413971 0.372221976518631
0.006949999935925 0.0488499967083335 0.00564999974519014 16 -0.0282362960278988 0.36670795083046 0.000453787622973323 0.367793709039688
0.00974999997764826 0.0488499967083335 0.00564999974519014 16 -0.0544074289500713 0.303211092948914 0.0288089048117399 0.30939793586731
0.0125500000193715 0.0488499967083335 0.00564999974519014 16 -0.0713033750653267 0.207743376493454 0.0492087863385677 0.225084394216537
0.0153500000610948 0.0488499967083335 0.00564999974519014 16 -0.0801620855927467 0.107697457075119 0.0690184906125069 0.150957778096199
0.018150000102818 0.0488499967083335 0.00564999974519014 16 -0.0806289687752724 0.0202608648687601 0.0880830958485603 0.12112046033144
0.0209500001445413 0.0488499967083335 0.00564999974519014 16 -0.076102539896965 -0.0528481155633926 0.10708724707365 0.141605779528618
0.0237500001862645 0.0488499967083335 0.00564999974519014 16 -0.0687644183635712 -0.116791382431984 0.121245414018631 0.181849449872971
0.0265500002279878 0.0488499967083335 0.00564999974519014 16 -0.0580914169549942 -0.178889662027359 0.128374665975571 0.227719515562057
0.029350000269711 0.0488499967083335 0.00564999974519014 16 -0.0435556210577488 -0.235123291611671 0.127876475453377 0.271168678998947
0.0321500003114343 0.0488499967083335 0.00564999974519014 16 -0.0288776718080044 -0.280285328626633 0.122007884085178 0.30705001950264
0.0349500003531575 0.0488499967083335 0.00564999974519014 16 -0.0209381524473429 -0.299078673124313 0.118220910429955 0.322277277708054
-0.0350500006899238 0.0460499966666102 0.00564999974519014 16 -0.162069648504257 0.00157405133359134 0.189749598503113 0.249547511339188
-0.0322500006482005 0.0460499966666102 0.00564999974519014 16 -0.161819532513618 -0.0146887488663197 0.181788578629494 0.243820443749428
-0.0294500006064773 0.0460499966666102 0.00564999974519014 16 -0.157757788896561 -0.0531538650393486 0.157098144292831 0.228894472122192
-0.026650000564754 0.0460499966666102 0.00564999974519014 16 -0.144133642315865 -0.103562548756599 0.116877093911171 0.212508738040924
-0.0238500005230308 0.0460499966666102 0.00564999974519014 16 -0.119086317718029 -0.159861087799072 0.0636041015386581 0.209242925047874
-0.0210500004813075 0.0460499966666102 0.00564999974519014 16 -0.0794062316417694 -0.212527722120285 -0.00140936847310513 0.226881831884384
-0.0182500004395843 0.0460499966666102 0.00564999974519014 16 -0.0263891983777285 -0.251518964767456 -0.0747520178556442 0.263715833425522
-0.015450000397861 0.0460499966666102 0.00564999974519014 16 0.0369615629315376 -0.265301376581192 -0.15488013625145 0.309416949748993
-0.0126500003561378 0.0460499966666102 0.00564999974519014 16 0.102311708033085 -0.244857430458069 -0.23034493625164 0.351399540901184
-0.0098500003144145 0.0460499966666102 0.00564999974519014 16 0.153961449861526 -0.18558594584465 -0.279847681522369 0.369406253099442
-0.00705000027269125 0.0460499966666102 0.00564999974519014 16 0.180848240852356 -0.0914837941527367 -0.293842822313309 0.356957942247391
-0.004250000230968 0.0460499966666102 0.00564999974519014 16 0.172254905104637 0.0275324136018753 -0.263241559267044 0.315794080495834
-0.00145000018924474 0.0460499966666102 0.00564999974519014 16 0.136396989226341 0.148398101329803 -0.208402499556541 0.289927124977112
0.0013499998524785 0.0460499966666102 0.00564999974519014 16 0.0814545154571533 0.248292192816734 -0.135841175913811 0.294510900974274
0.00414999989420176 0.0460499966666102 0.00564999974519014 16 0.0251751523464918 0.303274571895599 -0.0672396942973137 0.311657547950745
0.006949999935925 0.0460499966666102 0.00564999974519014 16 -0.0264224912971258 0.305211305618286 -0.0047748601064086 0.306390076875687
0.00974999997764826 0.0460499966666102 0.00564999974519014 16 -0.0674631521105766 0.259482383728027 0.0436728000640869 0.271642595529556
0.0125500000193715 0.0460499966666102 0.00564999974519014 16 -0.0984115675091743 0.184996828436852 0.0829381495714188 0.225360602140427
0.0153500000610948 0.0460499966666102 0.00564999974519014 16 -0.116237789392471 0.101652763783932 0.114070884883404 0.191980913281441
0.018150000102818 0.0460499966666102 0.00564999974519014 16 -0.121541723608971 0.0237194076180458 0.137656971812248 0.185160592198372
0.0209500001445413 0.0460499966666102 0.00564999974519014 16 -0.115089982748032 -0.0445675030350685 0.151259705424309 0.195221573114395
0.0237500001862645 0.0460499966666102 0.00564999974519014 16 -0.101471915841103 -0.103134989738464 0.154704302549362 0.21181783080101
0.0265500002279878 0.0460499966666102 0.00564999974519014 16 -0.080444373190403 -0.156772270798683 0.146119564771652 0.228909954428673
0.029350000269711 0.0460499966666102 0.00564999974519014 16 -0.0553061850368977 -0.203019514679909 0.129884421825409 0.247276484966278
0.0321500003114343 0.0460499966666102 0.00564999974519014 16 -0.0308059696108103 -0.239414066076279 0.109535567462444 0.265077620744705
0.0349500003531575 0.0460499966666102 0.00564999974519014 16 -0.0188138261437416 -0.254853039979935 0.0994973629713058 0.274233043193817
-0.0350500006899238 0.043249996624887 0.00564999974519014 16 -0.150360152125359 -0.00472613470628858 0.184069558978081 0.237722769379616
-0.0322500006482005 0.043249996624887 0.00564999974519014 16 -0.150518253445625 -0.0209167376160622 0.175514906644821 0.232161015272141
-0.0294500006064773 0.043249996624887 0.00564999974519014 16 -0.147766306996346 -0.0562954768538475 0.152161076664925 0.219447165727615
-0.026650000564754 0.043249996624887 0.00564999974519014 16 -0.135819837450981 -0.0997425839304924 0.115259617567062 0.204157754778862
-0.0238500005230308 0.043249996624887 0.00564999974519014 16 -0.112499080598354 -0.142282173037529 0.0665302649140358 0.193200767040253
-0.0210500004813075 0.043249996624887 0.00564999974519014 16 -0.0762893930077553 -0.177324086427689 0.00659011816605926 0.19315105676651
-0.0182500004395843 0.043249996624887 0.00564999974519014 16 -0.028838574886322 -0.197773426771164 -0.0614554733037949 0.209099903702736
-0.015450000397861 0.043249996624887 0.00564999974519014 16 0.0261428747326136 -0.198283031582832 -0.135133296251297 0.241372361779213
-0.0126500003561378 0.043249996624887 0.00564999974519014 16 0.0820818543434143 -0.17386931180954 -0.203814581036568 0.280193418264389
-0.0098500003144145 0.043249996624887 0.00564999974519014 16 0.12629622220993 -0.124688260257244 -0.250288009643555 0.306825667619705
-0.00705000027269125 0.043249996624887 0.00564999974519014 16 0.150755777955055 -0.0532410964369774 -0.266105830669403 0.310442000627518
-0.004250000230968 0.043249996624887 0.00564999974519014 16 0.146386086940765 0.0323262363672256 -0.243219956755638 0.285709321498871
-0.00145000018924474 0.043249996624887 0.00564999974519014 16 0.118841461837292 0.11893068253994 -0.196652621030807 0.258727759122849
0.0013499998524785 0.043249996624887 0.00564999974519014 16 0.0732030645012856 0.191205441951752 -0.131717175245285 0.243449434638023
0.00414999989420176 0.043249996624887 0.00564999974519014 16 0.0248287264257669 0.234051361680031 -0.0684586986899376 0.245118543505669
0.006949999935925 0.043249996624887 0.00564999974519014 16 -0.0217035636305809 0.240360751748085 -0.00783975142985582 0.24146594107151
0.00974999997764826 0.043249996624887 0.00564999974519014 16 -0.0600712634623051 0.211965888738632 0.0415564626455307 0.224198654294014
0.0125500000193715 0.043249996624887 0.00564999974519014 16 -0.0927882716059685 0.159724354743958 0.0868788957595825 0.20413102209568
0.0153500000610948 0.043249996624887 0.00564999974519014 16 -0.114775247871876 0.0958960205316544 0.12272173166275 0.193468406796455
0.018150000102818 0.043249996624887 0.00564999974519014 16 -0.124280616641045 0.0311655346304178 0.148241177201271 0.195939809083939
0.0209500001445413 0.043249996624887 0.00564999974519014 16 -0.117692410945892 -0.0299362950026989 0.155931785702705 0.197642117738724
0.0237500001862645 0.043249996624887 0.00564999974519014 16 -0.0990167930722237 -0.0832751765847206 0.148228600621223 0.196750596165657
0.0265500002279878 0.043249996624887 0.00564999974519014 16 -0.0710193067789078 -0.130223721265793 0.126213431358337 0.194760844111443
0.029350000269711 0.043249996624887 0.00564999974519014 16 -0.0409618467092514 -0.167609453201294 0.099290169775486 0.199071198701859
0.0321500003114343 0.043249996624887 0.00564999974519014 16 -0.0147161101922393 -0.195339202880859 0.0733089596033096 0.209160625934601
0.0349500003531575 0.043249996624887 0.00564999974519014 16 -0.00297352951020002 -0.206813588738441 0.061783742159605 0.215865537524223
-0.0350500006899238 0.0404499965831637 0.00564999974519014 16 -0.112156964838505 -0.0140012968331575 0.142718493938446 0.182054355740547
-0.0322500006482005 0.0404499965831637 0.00564999974519014 16 -0.112354204058647 -0.0285561475902796 0.135792165994644 0.178545325994492
-0.0294500006064773 0.0404499965831637 0.00564999974519014 16 -0.110332496464252 -0.058669026941061 0.11706817895174 0.171231642365456
-0.026650000564754 0.0404499965831637 0.00564999974519014 16 -0.10081847012043 -0.0937890484929085 0.0863426923751831 0.162529408931732
-0.0238500005230308 0.0404499965831637 0.00564999974519014 16 -0.0816195011138916 -0.12403217703104 0.0445500202476978 0.155017510056496
-0.0210500004813075 0.0404499965831637 0.00564999974519014 16 -0.0532746538519859 -0.145256042480469 -0.00629587192088366 0.154845550656319
-0.0182500004395843 0.0404499965831637 0.00564999974519014 16 -0.0175412688404322 -0.152908816933632 -0.062487754970789 0.166112974286079
-0.015450000397861 0.0404499965831637 0.00564999974519014 16 0.021452859044075 -0.146079525351524 -0.119202330708504 0.189759448170662
-0.0126500003561378 0.0404499965831637 0.00564999974519014 16 0.0593883395195007 -0.122031234204769 -0.16861779987812 0.216449901461601
-0.0098500003144145 0.0404499965831637 0.00564999974519014 16 0.0879498645663261 -0.0824884921312332 -0.19889760017395 0.232593595981598
-0.00705000027269125 0.0404499965831637 0.00564999974519014 16 0.102397754788399 -0.0288174599409103 -0.205325245857239 0.231244891881943
-0.004250000230968 0.0404499965831637 0.00564999974519014 16 0.0978467985987663 0.0331653952598572 -0.184802934527397 0.211721673607826
-0.00145000018924474 0.0404499965831637 0.00564999974519014 16 0.0777637660503387 0.0952728316187859 -0.147369131445885 0.191942110657692
0.0013499998524785 0.0404499965831637 0.00564999974519014 16 0.0462962985038757 0.147748365998268 -0.0989785194396973 0.183765277266502
0.00414999989420176 0.0404499965831637 0.00564999974519014 16 0.0130425449460745 0.180751800537109 -0.0521959103643894 0.188588798046112
0.006949999935925 0.0404499965831637 0.00564999974519014 16 -0.019441744312644 0.189427673816681 -0.00659604370594025 0.190536960959435
0.00974999997764826 0.0404499965831637 0.00564999974519014 16 -0.0481246672570705 0.174199879169464 0.0327261388301849 0.183664321899414
0.0125500000193715 0.0404499965831637 0.00564999974519014 16 -0.0756471678614616 0.140722498297691 0.0733337551355362 0.175792932510376
0.0153500000610948 0.0404499965831637 0.00564999974519014 16 -0.0968798473477364 0.095554307103157 0.105974242091179 0.172472819685936
0.018150000102818 0.0404499965831637 0.00564999974519014 16 -0.107251912355423 0.0443811863660812 0.128815442323685 0.173395738005638
0.0209500001445413 0.0404499965831637 0.00564999974519014 16 -0.101146973669529 -0.00913357362151146 0.131460681557655 0.166120573878288
0.0237500001862645 0.0404499965831637 0.00564999974519014 16 -0.0805734694004059 -0.0590793192386627 0.117236353456974 0.154035106301308
0.0265500002279878 0.0404499965831637 0.00564999974519014 16 -0.050755001604557 -0.102977022528648 0.090146541595459 0.14596825838089
0.029350000269711 0.0404499965831637 0.00564999974519014 16 -0.0198190454393625 -0.135946482419968 0.0595587119460106 0.149738043546677
0.0321500003114343 0.0404499965831637 0.00564999974519014 16 0.00518645346164703 -0.158205047249794 0.0334552377462387 0.16178685426712
0.0349500003531575 0.0404499965831637 0.00564999974519014 16 0.016206881031394 -0.166881412267685 0.0216095522046089 0.169053375720978
-0.0350500006899238 0.0376499965414405 0.00564999974519014 16 -0.0718299448490143 -0.024706058204174 0.0979976877570152 0.123989827930927
-0.0322500006482005 0.0376499965414405 0.00564999974519014 16 -0.0721970498561859 -0.0363858677446842 0.0921564325690269 0.122593447566032
-0.0294500006064773 0.0376499965414405 0.00564999974519014 16 -0.0707811936736107 -0.0598754920065403 0.0776843428611755 0.120954155921936
-0.026650000564754 0.0376499965414405 0.00564999974519014 16 -0.0634719058871269 -0.0864095911383629 0.0530467331409454 0.119621306657791
-0.0238500005230308 0.0376499965414405 0.00564999974519014 16 -0.0484152473509312 -0.107668943703175 0.0187635086476803 0.119535379111767
-0.0210500004813075 0.0376499965414405 0.00564999974519014 16 -0.0274374820291996 -0.121046312153339 -0.0230017080903053 0.126230359077454
-0.0182500004395843 0.0376499965414405 0.00564999974519014 16 -0.0022548153065145 -0.123493701219559 -0.0675813779234886 0.14079424738884
-0.015450000397861 0.0376499965414405 0.00564999974519014 16 0.022852748632431 -0.114439234137535 -0.107996180653572 0.159002393484116
-0.0126500003561378 0.0376499965414405 0.00564999974519014 16 0.0451527945697308 -0.0921871364116669 -0.138275429606438 0.172213062644005
-0.0098500003144145 0.0376499965414405 0.00564999974519014 16 0.059521920979023 -0.058150090277195 -0.151756137609482 0.173072874546051
-0.00705000027269125 0.0376499965414405 0.00564999974519014 16 0.0638434961438179 -0.0149989081546664 -0.14776574075222 0.161665320396423