TITLE="DynamicStudio Exported Data"
VARIABLES= "X (m)[m]" "Y (m)[m]" "Z (m)[m]" "Status[-]" "U[-]" "V[-]" "W[-]" "Length[-]"
ZONE T="DynamicStudio Data" F=POINT
-0.0350500006899238 0.0600499968752265 0.00564999974519014 16 0.17405478656292 -0.00797116756439209 -0.113297812640667 0.207834079861641
-0.0322500006482005 0.0600499968752265 0.00564999974519014 16 0.1797826141119 -0.0190409794449806 -0.124659545719624 0.219600439071655
-0.0294500006064773 0.0600499968752265 0.00564999974519014 16 0.178978905081749 -0.0501674376428127 -0.12879878282547 0.226140111684799
-0.026650000564754 0.0600499968752265 0.00564999974519014 16 0.172803327441216 -0.105112709105015 -0.13805103302002 0.244883149862289
-0.0238500005230308 0.0600499968752265 0.00564999974519014 16 0.143128871917725 -0.180882930755615 -0.122076354920864 0.260973453521729
-0.0210500004813075 0.0600499968752265 0.00564999974519014 16 0.0941380485892296 -0.265849769115448 -0.0932731106877327 0.297048717737198
-0.0182500004395843 0.0600499968752265 0.00564999974519014 16 0.0162814147770405 -0.332931369543076 -0.0264195669442415 0.334374606609344
-0.015450000397861 0.0600499968752265 0.00564999974519014 16 -0.0784537047147751 -0.357230722904205 0.0635103657841682 0.371217370033264
-0.0126500003561378 0.0600499968752265 0.00564999974519014 16 -0.179019168019295 -0.317694664001465 0.172014206647873 0.403195559978485
-0.0098500003144145 0.0600499968752265 0.00564999974519014 16 -0.259771645069122 -0.215097531676292 0.26520961523056 0.42905056476593
-0.00705000027269125 0.0600499968752265 0.00564999974519014 16 -0.296758055686951 -0.0642577260732651 0.31214165687561 0.435461610555649
-0.004250000230968 0.0600499968752265 0.00564999974519014 16 -0.279883772134781 0.0997476279735565 0.29768043756485 0.420592606067657
-0.00145000018924474 0.0600499968752265 0.00564999974519014 16 -0.21064156293869 0.24026520550251 0.220847681164742 0.388421088457108
0.0013499998524785 0.0600499968752265 0.00564999974519014 16 -0.113117463886738 0.323666721582413 0.114932425320148 0.361614674329758
0.00414999989420176 0.0600499968752265 0.00564999974519014 16 -0.00671881390735507 0.340007215738297 0.0030727309640497 0.340087473392487
0.006949999935925 0.0600499968752265 0.00564999974519014 16 0.0808264687657356 0.297160089015961 -0.0797498002648354 0.318114846944809
0.00974999997764826 0.0600499968752265 0.00564999974519014 16 0.144339114427567 0.219248920679092 -0.133345574140549 0.294423013925552
0.0125500000193715 0.0600499968752265 0.00564999974519014 16 0.17402458190918 0.131564676761627 -0.152866825461388 0.266387104988098
0.0153500000610948 0.0600499968752265 0.00564999974519014 16 0.184567674994469 0.0529724173247814 -0.158860504627228 0.249214693903923
0.018150000102818 0.0600499968752265 0.00564999974519014 16 0.181302890181541 -0.0127972736954689 -0.159124553203583 0.241568073630333
0.0209500001445413 0.0600499968752265 0.00564999974519014 16 0.177943140268326 -0.0720812082290649 -0.166391432285309 0.254058212041855
0.0237500001862645 0.0600499968752265 0.00564999974519014 16 0.170709118247032 -0.137512803077698 -0.176225483417511 0.281259298324585
0.0265500002279878 0.0600499968752265 0.00564999974519014 16 0.150496140122414 -0.212210685014725 -0.175700768828392 0.313931882381439
0.029350000269711 0.0600499968752265 0.00564999974519014 16 0.114852622151375 -0.288781583309174 -0.156124591827393 0.347794204950333
0.0321500003114343 0.0600499968752265 0.00564999974519014 16 0.0728733539581299 -0.350285589694977 -0.124992795288563 0.3789903819561
0.0349500003531575 0.0600499968752265 0.00564999974519014 16 0.0518768690526485 -0.378256142139435 -0.107058823108673 0.396523028612137
-0.0350500006899238 0.0572499968335032 0.00564999974519014 16 0.134224221110344 -0.0102102151140571 -0.065474808216095 0.149690806865692
-0.0322500006482005 0.0572499968335032 0.00564999974519014 16 0.139559850096703 -0.021528197452426 -0.0751345828175545 0.159955054521561
-0.0294500006064773 0.0572499968335032 0.00564999974519014 16 0.141215220093727 -0.0529207140207291 -0.0814551264047623 0.171398013830185
-0.026650000564754 0.0572499968335032 0.00564999974519014 16 0.137448862195015 -0.11004201322794 -0.0938834771513939 0.199538320302963
-0.0238500005230308 0.0572499968335032 0.00564999974519014 16 0.113745480775833 -0.190275803208351 -0.086218848824501 0.23785836994648
-0.0210500004813075 0.0572499968335032 0.00564999974519014 16 0.0742228329181671 -0.281604051589966 -0.0683753192424774 0.29914054274559
-0.0182500004395843 0.0572499968335032 0.00564999974519014 16 0.0123311718925834 -0.354523688554764 -0.0182288493961096 0.35520613193512
-0.015450000397861 0.0572499968335032 0.00564999974519014 16 -0.0637529194355011 -0.382239192724228 0.0530413202941418 0.391132473945618
-0.0126500003561378 0.0572499968335032 0.00564999974519014 16 -0.145515009760857 -0.341748207807541 0.141437515616417 0.39745569229126
-0.0098500003144145 0.0572499968335032 0.00564999974519014 16 -0.213814616203308 -0.232794597744942 0.219445824623108 0.38479408621788
-0.00705000027269125 0.0572499968335032 0.00564999974519014 16 -0.246335044503212 -0.0713285580277443 0.258598148822784 0.364200115203857
-0.004250000230968 0.0572499968335032 0.00564999974519014 16 -0.234528049826622 0.105741068720818 0.247021049261093 0.356656670570374
-0.00145000018924474 0.0572499968335032 0.00564999974519014 16 -0.177066892385483 0.257401973009109 0.18209283053875 0.361616164445877
0.0013499998524785 0.0572499968335032 0.00564999974519014 16 -0.0956261456012726 0.347681134939194 0.0933715924620628 0.372484624385834
0.00414999989420176 0.0572499968335032 0.00564999974519014 16 -0.00614184373989701 0.3643818795681 0.000127808089018799 0.364433646202087
0.006949999935925 0.0572499968335032 0.00564999974519014 16 0.0667652487754822 0.316490679979324 -0.0674038827419281 0.33040463924408
0.00974999997764826 0.0572499968335032 0.00564999974519014 16 0.119586765766144 0.230189442634583 -0.110106401145458 0.281800627708435
0.0125500000193715 0.0572499968335032 0.00564999974519014 16 0.143850415945053 0.13462221622467 -0.123964391648769 0.232772961258888
0.0153500000610948 0.0572499968335032 0.00564999974519014 16 0.152825385332108 0.0513638965785503 -0.127033799886703 0.205259427428246
0.018150000102818 0.0572499968335032 0.00564999974519014 16 0.15052530169487 -0.0152374040335417 -0.126320526003838 0.197096213698387
0.0209500001445413 0.0572499968335032 0.00564999974519014 16 0.14848755300045 -0.074050210416317 -0.132424771785736 0.212292984127998
0.0237500001862645 0.0572499968335032 0.00564999974519014 16 0.143434524536133 -0.140648558735847 -0.142848715186119 0.246497943997383
0.0265500002279878 0.0572499968335032 0.00564999974519014 16 0.127508655190468 -0.219584882259369 -0.145518854260445 0.292663127183914
0.029350000269711 0.0572499968335032 0.00564999974519014 16 0.0987352281808853 -0.302397876977921 -0.13255375623703 0.34462097287178
0.0321500003114343 0.0572499968335032 0.00564999974519014 16 0.0643676668405533 -0.369684010744095 -0.108168922364712 0.390525251626968
0.0349500003531575 0.0572499968335032 0.00564999974519014 16 0.0469220243394375 -0.399940222501755 -0.0930116847157478 0.41328564286232
-0.0350500006899238 0.05444999679178 0.00564999974519014 16 0.042353417724371 -0.0182846188545227 0.0351550988852978 0.0580001771450043
-0.0322500006482005 0.05444999679178 0.00564999974519014 16 0.0485040694475174 -0.0291678011417389 0.0258970856666565 0.0622419826686382
-0.0294500006064773 0.05444999679178 0.00564999974519014 16 0.0539213977754116 -0.0611747913062572 0.0165786631405354 0.0832149311900139
-0.026650000564754 0.05444999679178 0.00564999974519014 16 0.0555691868066788 -0.121484220027924 -0.00184527423698455 0.133602976799011
-0.0238500005230308 0.05444999679178 0.00564999974519014 16 0.0445795394480228 -0.207555025815964 -0.00928086973726749 0.212491318583488
-0.0210500004813075 0.05444999679178 0.00564999974519014 16 0.0276195518672466 -0.306483894586563 -0.0163952894508839 0.308162331581116
-0.0182500004395843 0.05444999679178 0.00564999974519014 16 0.00204462697729468 -0.386304378509521 -0.00447990978136659 0.386335790157318
-0.015450000397861 0.05444999679178 0.00564999974519014 16 -0.0301840789616108 -0.418017446994781 0.0211858656257391 0.419640898704529
-0.0126500003561378 0.05444999679178 0.00564999974519014 16 -0.0678608417510986 -0.375845104455948 0.0621651895344257 0.386948496103287
-0.0098500003144145 0.05444999679178 0.00564999974519014 16 -0.104601420462132 -0.257416933774948 0.103932239115238 0.296659469604492
-0.00705000027269125 0.05444999679178 0.00564999974519014 16 -0.12443545460701 -0.0804571434855461 0.126166641712189 0.194616436958313
-0.004250000230968 0.05444999679178 0.00564999974519014 16 -0.122789330780506 0.115715608000755 0.122718378901482 0.208631545305252
-0.00145000018924474 0.05444999679178 0.00564999974519014 16 -0.0929149687290192 0.284191787242889 0.0871103033423424 0.311426341533661
0.0013499998524785 0.05444999679178 0.00564999974519014 16 -0.0495063662528992 0.386249482631683 0.0396738946437836 0.391425043344498
0.00414999989420176 0.05444999679178 0.00564999974519014 16 0.000305653637042269 0.405243039131165 -0.0100216902792454 0.40536704659462
0.006949999935925 0.05444999679178 0.00564999974519014 16 0.0382486991584301 0.350726246833801 -0.0404503792524338 0.35511702299118
0.00974999997764826 0.05444999679178 0.00564999974519014 16 0.0648973137140274 0.250694572925568 -0.0546367913484573 0.264659434556961
0.0125500000193715 0.05444999679178 0.00564999974519014 16 0.074218861758709 0.141475796699524 -0.0512941293418407 0.167794302105904
0.0153500000610948 0.05444999679178 0.00564999974519014 16 0.0776850879192352 0.0489441566169262 -0.0456698648631573 0.102548718452454
0.018150000102818 0.05444999679178 0.00564999974519014 16 0.0764578953385353 -0.0203613042831421 -0.0431239642202854 0.0901114270091057
0.0209500001445413 0.05444999679178 0.00564999974519014 16 0.0773044377565384 -0.0784449204802513 -0.0486765690147877 0.12041175365448
0.0237500001862645 0.05444999679178 0.00564999974519014 16 0.0771390274167061 -0.145325139164925 -0.0613966882228851 0.175611451268196
0.0265500002279878 0.05444999679178 0.00564999974519014 16 0.0705975890159607 -0.228663221001625 -0.0709904357790947 0.249620780348778
0.029350000269711 0.05444999679178 0.00564999974519014 16 0.0577531680464745 -0.31982284784317 -0.0738049075007439 0.333270519971848
0.0321500003114343 0.05444999679178 0.00564999974519014 16 0.0409683026373386 -0.395719617605209 -0.0677939802408218 0.403569638729095
0.0349500003531575 0.05444999679178 0.00564999974519014 16 0.0326322019100189 -0.429610967636108 -0.0634637475013733 0.435497552156448
-0.0350500006899238 0.0516499967500567 0.00564999974519014 16 -0.0626871362328529 -0.0223005078732967 0.141315966844559 0.156196013092995
-0.0322500006482005 0.0516499967500567 0.00564999974519014 16 -0.0575011186301708 -0.0351552665233612 0.133285596966743 0.149356350302696
-0.0294500006064773 0.0516499967500567 0.00564999974519014 16 -0.0500442907214165 -0.0706333443522453 0.120432466268539 0.148315474390984
-0.026650000564754 0.0516499967500567 0.00564999974519014 16 -0.0426159538328648 -0.133328720927238 0.0944013670086861 0.168832123279572
-0.0238500005230308 0.0516499967500567 0.00564999974519014 16 -0.0376086980104446 -0.219766736030579 0.0679286792874336 0.233079671859741
-0.0210500004813075 0.0516499967500567 0.00564999974519014 16 -0.0267584733664989 -0.316230595111847 0.0328640006482601 0.319057762622833
-0.0182500004395843 0.0516499967500567 0.00564999974519014 16 -0.00995910167694092 -0.392524152994156 0.0027494712267071 0.392660081386566
-0.015450000397861 0.0516499967500567 0.00564999974519014 16 0.00907259061932564 -0.420394033193588 -0.0237640477716923 0.421162873506546
-0.0126500003561378 0.0516499967500567 0.00564999974519014 16 0.0230273529887199 -0.376048654317856 -0.039693046361208 0.378838211297989
-0.0098500003144145 0.0516499967500567 0.00564999974519014 16 0.0252059083431959 -0.256143569946289 -0.0443079806864262 0.261166751384735
-0.00705000027269125 0.0516499967500567 0.00564999974519014 16 0.0212434642016888 -0.0791008546948433 -0.0434896349906921 0.0927339121699333
-0.004250000230968 0.0516499967500567 0.00564999974519014 16 0.012376849539578 0.118425004184246 -0.0370669066905975 0.124706149101257
-0.00145000018924474 0.0516499967500567 0.00564999974519014 16 0.00946749746799469 0.288588315248489 -0.0353879407048225 0.290904015302658
0.0013499998524785 0.0516499967500567 0.00564999974519014 16 0.00781683810055256 0.394122123718262 -0.0315060243010521 0.395456671714783
0.00414999989420176 0.0516499967500567 0.00564999974519014 16 0.00971286930143833 0.414833009243011 -0.0266241449862719 0.415799975395203
0.006949999935925 0.0516499967500567 0.00564999974519014 16 0.00573974847793579 0.360590398311615 -0.0105256317183375 0.360789656639099
0.00974999997764826 0.0516499967500567 0.00564999974519014 16 -0.000132628847495653 0.257292687892914 0.0122385863214731 0.257583618164062
0.0125500000193715 0.0516499967500567 0.00564999974519014 16 -0.0100100878626108 0.144665941596031 0.0383152365684509 0.149988308548927
0.0153500000610948 0.0516499967500567 0.00564999974519014 16 -0.0149247357621789 0.0486807599663734 0.056201983243227 0.0758368447422981
0.018150000102818 0.0516499967500567 0.00564999974519014 16 -0.0155361955985427 -0.0216949284076691 0.0618770495057106 0.0673855543136597
0.0209500001445413 0.0516499967500567 0.00564999974519014 16 -0.0109430504962802 -0.0798972547054291 0.0570575371384621 0.0987870618700981
0.0237500001862645 0.0516499967500567 0.00564999974519014 16 -0.0043504317291081 -0.145612969994545 0.041707344353199 0.151530742645264
0.0265500002279878 0.0516499967500567 0.00564999974519014 16 0.00147007126361132 -0.2277442663908 0.0230441093444824 0.228911876678467
0.029350000269711 0.0516499967500567 0.00564999974519014 16 0.00818048231303692 -0.318269431591034 0.00114760268479586 0.318376630544662
0.0321500003114343 0.0516499967500567 0.00564999974519014 16 0.0128610357642174 -0.394024401903152 -0.0139152202755213 0.394479751586914
0.0349500003531575 0.0516499967500567 0.00564999974519014 16 0.0160551927983761 -0.427962839603424 -0.0213281586766243 0.428794652223587
-0.0350500006899238 0.0488499967083335 0.00564999974519014 16 -0.144903421401978 -0.0281577669084072 0.208086520433426 0.255127131938934
-0.0322500006482005 0.0488499967083335 0.00564999974519014 16 -0.141451686620712 -0.0424885116517544 0.200870350003242 0.249324589967728
-0.0294500006064773 0.0488499967083335 0.00564999974519014 16 -0.134466245770454 -0.080315537750721 0.184800326824188 0.242245569825172
-0.026650000564754 0.0488499967083335 0.00564999974519014 16 -0.122710190713406 -0.140782654285431 0.153707474470139 0.241875037550926
-0.0238500005230308 0.0488499967083335 0.00564999974519014 16 -0.103895865380764 -0.218009099364281 0.113393098115921 0.266796380281448
-0.0210500004813075 0.0488499967083335 0.00564999974519014 16 -0.0694093331694603 -0.298465549945831 0.0576047971844673 0.311797440052032
-0.0182500004395843 0.0488499967083335 0.00564999974519014 16 -0.019100708886981 -0.358068495988846 -0.00520614814013243 0.35861536860466
-0.015450000397861 0.0488499967083335 0.00564999974519014 16 0.0400047414004803 -0.373812079429626 -0.0732893571257591 0.383023738861084
-0.0126500003561378 0.0488499967083335 0.00564999974519014 16 0.0939822494983673 -0.32814434170723 -0.134527817368507 0.366891145706177
-0.0098500003144145 0.0488499967083335 0.00564999974519014 16 0.12812864780426 -0.218660771846771 -0.176591128110886 0.308891415596008
-0.00705000027269125 0.0488499967083335 0.00564999974519014 16 0.137969166040421 -0.0622752644121647 -0.192457675933838 0.244854360818863
-0.004250000230968 0.0488499967083335 0.00564999974519014 16 0.12264072149992 0.111902207136154 -0.177278012037277 0.242879286408424
-0.00145000018924474 0.0488499967083335 0.00564999974519014 16 0.0942564085125923 0.263110518455505 -0.144130080938339 0.314459681510925
0.0013499998524785 0.0488499967083335 0.00564999974519014 16 0.0576346404850483 0.360512673854828 -0.0976347476243973 0.377920210361481
0.00414999989420176 0.0488499967083335 0.00564999974519014 16 0.0217300839722157 0.383103400468826 -0.0473247580230236 0.386626482009888
0.006949999935925 0.0488499967083335 0.00564999974519014 16 -0.0155171118676662 0.338156878948212 0.00896344613283873 0.338631361722946
0.00974999997764826 0.0488499967083335 0.00564999974519014 16 -0.0486328266561031 0.245904237031937 0.0658187717199326 0.259164333343506
0.0125500000193715 0.0488499967083335 0.00564999974519014 16 -0.0765150189399719 0.142785742878914 0.11574574559927 0.199096441268921
0.0153500000610948 0.0488499967083335 0.00564999974519014 16 -0.0916838422417641 0.0508323051035404 0.148106589913368 0.181453615427017
0.018150000102818 0.0488499967083335 0.00564999974519014 16 -0.094616025686264 -0.0189524162560701 0.158388093113899 0.185467451810837
0.0209500001445413 0.0488499967083335 0.00564999974519014 16 -0.0872912332415581 -0.0775377675890923 0.152211889624596 0.191834107041359
0.0237500001862645 0.0488499967083335 0.00564999974519014 16 -0.0737148895859718 -0.138406753540039 0.131740972399712 0.204807236790657
0.0265500002279878 0.0488499967083335 0.00564999974519014 16 -0.0555840842425823 -0.2106594145298 0.102829329669476 0.240916699171066
0.029350000269711 0.0488499967083335 0.00564999974519014 16 -0.0319182351231575 -0.288501024246216 0.0645189806818962 0.29734542965889
0.0321500003114343 0.0488499967083335 0.00564999974519014 16 -0.00940933637320995 -0.353816092014313 0.0305923298001289 0.355260848999023
0.0349500003531575 0.0488499967083335 0.00564999974519014 16 0.00259973248466849 -0.383805304765701 0.0126486113294959 0.384022504091263
-0.0350500006899238 0.0460499966666102 0.00564999974519014 16 -0.175722807645798 -0.0318216159939766 0.222207203507423 0.285073965787888
-0.0322500006482005 0.0460499966666102 0.00564999974519014 16 -0.174052760004997 -0.0478791929781437 0.21466663479805 0.28047913312912
-0.0294500006064773 0.0460499966666102 0.00564999974519014 16 -0.168884232640266 -0.0859934836626053 0.19615426659584 0.272751271724701
-0.026650000564754 0.0460499966666102 0.00564999974519014 16 -0.155267328023911 -0.139777347445488 0.162348970770836 0.264580488204956
-0.0238500005230308 0.0460499966666102 0.00564999974519014 16 -0.129212573170662 -0.200878113508224 0.11564576625824 0.265371143817902
-0.0210500004813075 0.0460499966666102 0.00564999974519014 16 -0.0834680646657944 -0.257723242044449 0.0522146597504616 0.275888681411743
-0.0182500004395843 0.0460499966666102 0.00564999974519014 16 -0.0204222090542316 -0.293294876813889 -0.02224450558424 0.294845342636108
-0.015450000397861 0.0460499966666102 0.00564999974519014 16 0.0523635633289814 -0.292888104915619 -0.105843171477318 0.315797656774521
-0.0126500003561378 0.0460499966666102 0.00564999974519014 16 0.119195438921452 -0.246997758746147 -0.185453161597252 0.331071466207504
-0.0098500003144145 0.0460499966666102 0.00564999974519014 16 0.16481901705265 -0.15688955783844 -0.24372211098671 0.333436816930771
-0.00705000027269125 0.0460499966666102 0.00564999974519014 16 0.179765164852142 -0.0352785103023052 -0.266581773757935 0.323459327220917
-0.004250000230968 0.0460499966666102 0.00564999974519014 16 0.162984848022461 0.0982731431722641 -0.246912494301796 0.311749011278152
-0.00145000018924474 0.0460499966666102 0.00564999974519014 16 0.124789454042912 0.215747863054276 -0.19876591861248 0.318790584802628
0.0013499998524785 0.0460499966666102 0.00564999974519014 16 0.0750324204564095 0.294330179691315 -0.132701233029366 0.331466048955917
0.00414999989420176 0.0460499966666102 0.00564999974519014 16 0.024817856028676 0.31677371263504 -0.0624848790466785 0.323829978704453
0.006949999935925 0.0460499966666102 0.00564999974519014 16 -0.0242100954055786 0.286355406045914 0.0112386038526893 0.287596702575684
0.00974999997764826 0.0460499966666102 0.00564999974519014 16 -0.0672796294093132 0.216861546039581 0.0830508545041084 0.241770386695862
0.0125500000193715 0.0460499966666102 0.00564999974519014 16 -0.103207379579544 0.134716153144836 0.145251527428627 0.223379075527191
0.0153500000610948 0.0460499966666102 0.00564999974519014 16 -0.124699681997299 0.0554471202194691 0.186683058738708 0.231246531009674
0.018150000102818 0.0460499966666102 0.00564999974519014 16 -0.130879014730453 -0.0102793471887708 0.201908811926842 0.240836352109909
0.0209500001445413 0.0460499966666102 0.00564999974519014 16 -0.122463762760162 -0.0686784237623215 0.196004644036293 0.241105616092682
0.0237500001862645 0.0460499966666102 0.00564999974519014 16 -0.103708654642105 -0.124098107218742 0.172798901796341 0.23667548596859
0.0265500002279878 0.0460499966666102 0.00564999974519014 16 -0.0763451233506203 -0.183223903179169 0.137370854616165 0.241392478346825
0.029350000269711 0.0460499966666102 0.00564999974519014 16 -0.0423310026526451 -0.241326630115509 0.0913517251610756 0.261487275362015
0.0321500003114343 0.0460499966666102 0.00564999974519014 16 -0.010223550722003 -0.288576781749725 0.049187920987606 0.292917281389236
0.0349500003531575 0.0460499966666102 0.00564999974519014 16 0.00610642647370696 -0.310010313987732 0.027894988656044 0.311322689056396
-0.0350500006899238 0.043249996624887 0.00564999974519014 16 -0.162344679236412 -0.0398765504360199 0.196620404720306 0.258080452680588
-0.0322500006482005 0.043249996624887 0.00564999974519014 16 -0.161472395062447 -0.0547578893601894 0.188280552625656 0.254010498523712
-0.0294500006064773 0.043249996624887 0.00564999974519014 16 -0.157510131597519 -0.0882814526557922 0.167926207184792 0.246581166982651
-0.026650000564754 0.043249996624887 0.00564999974519014 16 -0.143673568964005 -0.131717428565025 0.134004354476929 0.236534863710403
-0.0238500005230308 0.043249996624887 0.00564999974519014 16 -0.116588965058327 -0.175683930516243 0.0879139378666878 0.228444069623947
-0.0210500004813075 0.043249996624887 0.00564999974519014 16 -0.0719241723418236 -0.211031869053841 0.0276266597211361 0.224656999111176
-0.0182500004395843 0.043249996624887 0.00564999974519014 16 -0.0140295429155231 -0.226080372929573 -0.0424534343183041 0.230459243059158
-0.015450000397861 0.043249996624887 0.00564999974519014 16 0.0503548942506313 -0.213495537638664 -0.119422100484371 0.249755069613457
-0.0126500003561378 0.043249996624887 0.00564999974519014 16 0.107534192502499 -0.169476613402367 -0.19115549325943 0.277175664901733
-0.0098500003144145 0.043249996624887 0.00564999974519014 16 0.146211728453636 -0.0989769399166107 -0.242809072136879 0.300217509269714
-0.00705000027269125 0.043249996624887 0.00564999974519014 16 0.157459244132042 -0.00994508154690266 -0.261621862649918 0.305513203144073
-0.004250000230968 0.043249996624887 0.00564999974519014 16 0.141831129789352 0.0850548222661018 -0.242165490984917 0.293248206377029
-0.00145000018924474 0.043249996624887 0.00564999974519014 16 0.106504663825035 0.170559257268906 -0.195439755916595 0.280411124229431
0.0013499998524785 0.043249996624887 0.00564999974519014 16 0.0619356445968151 0.230037003755569 -0.131768971681595 0.2722427546978
0.00414999989420176 0.043249996624887 0.00564999974519014 16 0.0170101057738066 0.251591414213181 -0.0634809285402298 0.260033488273621
0.006949999935925 0.043249996624887 0.00564999974519014 16 -0.0258466228842735 0.234169334173203 0.0075601264834404 0.235712721943855
0.00974999997764826 0.043249996624887 0.00564999974519014 16 -0.0640182942152023 0.186996936798096 0.0766134262084961 0.211980685591698
0.0125500000193715 0.043249996624887 0.00564999974519014 16 -0.0976208001375198 0.125802531838417 0.137961715459824 0.210688233375549
0.0153500000610948 0.043249996624887 0.00564999974519014 16 -0.120472267270088 0.0610124915838242 0.181315079331398 0.226077973842621
0.018150000102818 0.043249996624887 0.00564999974519014 16 -0.129599511623383 0.00131236168090254 0.199343711137772 0.237772300839424
0.0209500001445413 0.043249996624887 0.00564999974519014 16 -0.122080929577351 -0.0544372163712978 0.193547934293747 0.235218971967697
0.0237500001862645 0.043249996624887 0.00564999974519014 16 -0.100713208317757 -0.103926345705986 0.167434647679329 0.221310183405876
0.0265500002279878 0.043249996624887 0.00564999974519014 16 -0.0685330554842949 -0.151035010814667 0.128723561763763 0.209947884082794
0.029350000269711 0.043249996624887 0.00564999974519014 16 -0.0310085341334343 -0.192072778940201 0.0821005031466484 0.211172848939896
0.0321500003114343 0.043249996624887 0.00564999974519014 16 0.00268035754561424 -0.224001586437225 0.0409683771431446 0.227732971310616
0.0349500003531575 0.043249996624887 0.00564999974519014 16 0.0187546964734793 -0.238277494907379 0.0209720823913813 0.239932760596275
-0.0350500006899238 0.0404499965831637 0.00564999974519014 16 -0.124009199440479 -0.0458656176924706 0.156973958015442 0.205238297581673
-0.0322500006482005 0.0404499965831637 0.00564999974519014 16 -0.122929185628891 -0.0587806217372417 0.148523062467575 0.201558545231819
-0.0294500006064773 0.0404499965831637 0.00564999974519014 16 -0.118632614612579 -0.0865448713302612 0.127987116575241 0.194793254137039
-0.026650000564754 0.0404499965831637 0.00564999974519014 16 -0.105682648718357 -0.119957707822323 0.0963762551546097 0.186673671007156
-0.0238500005230308 0.0404499965831637 0.00564999974519014 16 -0.0816335529088974 -0.150235205888748 0.0544926673173904 0.179455026984215
-0.0210500004813075 0.0404499965831637 0.00564999974519014 16 -0.0451059453189373 -0.170439183712006 0.00284717744216323 0.176329717040062
-0.0182500004395843 0.0404499965831637 0.00564999974519014 16 -0.00107703218236566 -0.172643736004829 -0.0552571527659893 0.18127429485321
-0.015450000397861 0.0404499965831637 0.00564999974519014 16 0.0443001762032509 -0.154113829135895 -0.115826420485973 0.197811380028725
-0.0126500003561378 0.0404499965831637 0.00564999974519014 16 0.0812853425741196 -0.113849960267544 -0.169246554374695 0.219575777649879
-0.0098500003144145 0.0404499965831637 0.00564999974519014 16 0.104077093303204 -0.0584049224853516 -0.205039978027344 0.237243697047234
-0.00705000027269125 0.0404499965831637 0.00564999974519014 16 0.107144467532635 0.00778794521465898 -0.214320629835129 0.239737182855606
-0.004250000230968 0.0404499965831637 0.00564999974519014 16 0.0928641557693481 0.0756974592804909 -0.195651277899742 0.229419440031052
-0.00145000018924474 0.0404499965831637 0.00564999974519014 16 0.0652694851160049 0.137633070349693 -0.156292498111725 0.218243703246117
0.0013499998524785 0.0404499965831637 0.00564999974519014 16 0.0330678559839725 0.181428700685501 -0.105369120836258 0.212397053837776
0.00414999989420176 0.0404499965831637 0.00564999974519014 16 0.00139334832783788 0.200613752007484 -0.0506905391812325 0.20692352950573
0.006949999935925 0.0404499965831637 0.00564999974519014 16 -0.0277525950223207 0.192431464791298 0.00443337671458721 0.194472953677177
0.00974999997764826 0.0404499965831637 0.00564999974519014 16 -0.054717093706131 0.162984102964401 0.0579610876739025 0.181431159377098
0.0125500000193715 0.0404499965831637 0.00564999974519014 16 -0.0801532194018364 0.119672536849976 0.106201492249966 0.178954780101776
0.0153500000610948 0.0404499965831637 0.00564999974519014 16 -0.0999024957418442 0.0691599473357201 0.142980918288231 0.187635689973831
0.018150000102818 0.0404499965831637 0.00564999974519014 16 -0.109068222343922 0.0172560401260853 0.160286530852318 0.194641768932343
0.0209500001445413 0.0404499965831637 0.00564999974519014 16 -0.102684333920479 -0.0338252410292625 0.157181784510612 0.190772995352745
0.0237500001862645 0.0404499965831637 0.00564999974519014 16 -0.0810984224081039 -0.0792081579566002 0.133254483342171 0.174950405955315
0.0265500002279878 0.0404499965831637 0.00564999974519014 16 -0.0481499917805195 -0.119107566773891 0.0979210957884789 0.161535054445267
0.029350000269711 0.0404499965831637 0.00564999974519014 16 -0.011390415020287 -0.150018215179443 0.0557065457105637 0.160431995987892
0.0321500003114343 0.0404499965831637 0.00564999974519014 16 0.0197518542408943 -0.171590581536293 0.021019734442234 0.173997968435287
0.0349500003531575 0.0404499965831637 0.00564999974519014 16 0.0340885892510414 -0.180452108383179 0.00400572409853339 0.183687344193459
-0.0350500006899238 0.0376499965414405 0.00564999974519014 16 -0.0856020450592041 -0.0505050010979176 0.120553456246853 0.15624213218689
-0.0322500006482005 0.0376499965414405 0.00564999974519014 16 -0.0838777348399162 -0.0609154477715492 0.111849315464497 0.152500614523888
-0.0294500006064773 0.0376499965414405 0.00564999974519014 16 -0.0784311592578888 -0.0831430032849312 0.0914687365293503 0.146392405033112
-0.026650000564754 0.0376499965414405 0.00564999974519014 16 -0.0658756718039513 -0.108635008335114 0.0621570348739624 0.141437843441963
-0.0238500005230308 0.0376499965414405 0.00564999974519014 16 -0.0449058152735233 -0.130123794078827 0.0249469708651304 0.13989669084549
-0.0210500004813075 0.0376499965414405 0.00564999974519014 16 -0.0165568999946117 -0.142196401953697 -0.0178256426006556 0.144262611865997
-0.0182500004395843 0.0376499965414405 0.00564999974519014 16 0.0145039577037096 -0.139389365911484 -0.0637835264205933 0.153974339365959
-0.015450000397861 0.0376499965414405 0.00564999974519014 16 0.042838878929615 -0.120449133217335 -0.107295043766499 0.166899338364601
-0.0126500003561378 0.0376499965414405 0.00564999974519014 16 0.0621776171028614 -0.0847284197807312 -0.141373321413994 0.176157251000404
-0.0098500003144145 0.0376499965414405 0.00564999974519014 16 0.0704514309763908 -0.0382691211998463 -0.159981831908226 0.178947240114212
-0.00705000027269125 0.0376499965414405 0.00564999974519014 16 0.0654381066560745 0.0155598102137446 -0.159754127264023 0.173336759209633