TITLE="DynamicStudio Exported Data"
VARIABLES= "X (m)[m]" "Y (m)[m]" "Z (m)[m]" "Status[-]" "U[-]" "V[-]" "W[-]" "Length[-]"
ZONE T="DynamicStudio Data" F=POINT
-0.0350500006899238 0.0600499968752265 0.00564999974519014 16 -0.163159534335136 0.391672700643539 0.251366794109344 0.493167102336884
-0.0322500006482005 0.0600499968752265 0.00564999974519014 16 -0.118351086974144 0.386956632137299 0.19969154894352 0.451241761445999
-0.0294500006064773 0.0600499968752265 0.00564999974519014 16 -0.0235531181097031 0.370386868715286 0.0924244821071625 0.382470220327377
-0.026650000564754 0.0600499968752265 0.00564999974519014 16 0.0778807178139687 0.326524883508682 -0.0162456762045622 0.336077123880386
-0.0238500005230308 0.0600499968752265 0.00564999974519014 16 0.14853809773922 0.25763401389122 -0.0825772136449814 0.308638691902161
-0.0210500004813075 0.0600499968752265 0.00564999974519014 16 0.183606117963791 0.175549328327179 -0.105547092854977 0.275079905986786
-0.0182500004395843 0.0600499968752265 0.00564999974519014 16 0.188137531280518 0.098632387816906 -0.0979345738887787 0.23391292989254
-0.015450000397861 0.0600499968752265 0.00564999974519014 16 0.189977914094925 0.0297606643289328 -0.0973907113075256 0.215551048517227
-0.0126500003561378 0.0600499968752265 0.00564999974519014 16 0.191255658864975 -0.0387990325689316 -0.1060940772295 0.222126185894012
-0.0098500003144145 0.0600499968752265 0.00564999974519014 16 0.193007230758667 -0.118507035076618 -0.119159206748009 0.255919188261032
-0.00705000027269125 0.0600499968752265 0.00564999974519014 16 0.176215708255768 -0.211947619915009 -0.11143597215414 0.29730749130249
-0.004250000230968 0.0600499968752265 0.00564999974519014 16 0.126513615250587 -0.304924696683884 -0.0654425546526909 0.336552381515503
-0.00145000018924474 0.0600499968752265 0.00564999974519014 16 0.0415299348533154 -0.374894797801971 0.0155680747702718 0.377509236335754
0.0013499998524785 0.0600499968752265 0.00564999974519014 16 -0.072970449924469 -0.394788324832916 0.126501098275185 0.42093351483345
0.00414999989420176 0.0600499968752265 0.00564999974519014 16 -0.194187894463539 -0.345549374818802 0.243709251284599 0.465303659439087
0.006949999935925 0.0600499968752265 0.00564999974519014 16 -0.295074969530106 -0.224800646305084 0.348608702421188 0.509050667285919
0.00974999997764826 0.0600499968752265 0.00564999974519014 16 -0.349354416131973 -0.0516939722001553 0.411003410816193 0.541889846324921
0.0125500000193715 0.0600499968752265 0.00564999974519014 16 -0.336353421211243 0.134911745786667 0.40998762845993 0.547197103500366
0.0153500000610948 0.0600499968752265 0.00564999974519014 16 -0.260541826486588 0.288094639778137 0.337890774011612 0.514830827713013
0.018150000102818 0.0600499968752265 0.00564999974519014 16 -0.140459328889847 0.375913172960281 0.218144759535789 0.456756681203842
0.0209500001445413 0.0600499968752265 0.00564999974519014 16 -0.0126962512731552 0.383804559707642 0.0834110379219055 0.392968863248825
0.0237500001862645 0.0600499968752265 0.00564999974519014 16 0.0924037992954254 0.330880105495453 -0.0225274190306664 0.344278365373611
0.0265500002279878 0.0600499968752265 0.00564999974519014 16 0.159506991505623 0.245002031326294 -0.0918460488319397 0.306437879800797
0.029350000269711 0.0600499968752265 0.00564999974519014 16 0.190733462572098 0.162922695279121 -0.119717828929424 0.277948588132858
0.0321500003114343 0.0600499968752265 0.00564999974519014 16 0.200495913624763 0.104847431182861 -0.12962594628334 0.260757505893707
0.0349500003531575 0.0600499968752265 0.00564999974519014 16 0.200648203492165 0.0818952843546867 -0.128305956721306 0.251851052045822
-0.0350500006899238 0.0572499968335032 0.00564999974519014 16 -0.134969457983971 0.424481362104416 0.232238635420799 0.502330541610718
-0.0322500006482005 0.0572499968335032 0.00564999974519014 16 -0.0963804349303246 0.41828715801239 0.18722340464592 0.468301117420197
-0.0294500006064773 0.0572499968335032 0.00564999974519014 16 -0.0173519905656576 0.396105766296387 0.0969156250357628 0.40815868973732
-0.026650000564754 0.0572499968335032 0.00564999974519014 16 0.0670234262943268 0.344305127859116 0.00429430278018117 0.35079425573349
-0.0238500005230308 0.0572499968335032 0.00564999974519014 16 0.12480466812849 0.266948610544205 -0.0522707514464855 0.299282491207123
-0.0210500004813075 0.0572499968335032 0.00564999974519014 16 0.151953116059303 0.178545996546745 -0.0717054978013039 0.245173618197441
-0.0182500004395843 0.0572499968335032 0.00564999974519014 16 0.152999103069305 0.0983826145529747 -0.0634405165910721 0.192646220326424
-0.015450000397861 0.0572499968335032 0.00564999974519014 16 0.151679128408432 0.0290307644754648 -0.0599456056952477 0.165658742189407
-0.0126500003561378 0.0572499968335032 0.00564999974519014 16 0.151502832770348 -0.039350438863039 -0.0647930353879929 0.169409871101379
-0.0098500003144145 0.0572499968335032 0.00564999974519014 16 0.153576016426086 -0.122064106166363 -0.0748981833457947 0.209988042712212
-0.00705000027269125 0.0572499968335032 0.00564999974519014 16 0.141890496015549 -0.221466213464737 -0.0696240589022636 0.272080332040787
-0.004250000230968 0.0572499968335032 0.00564999974519014 16 0.103076212108135 -0.323628395795822 -0.0336880348622799 0.341313540935516
-0.00145000018924474 0.0572499968335032 0.00564999974519014 16 0.0341943576931953 -0.400928556919098 0.0309070888906717 0.403569340705872
0.0013499998524785 0.0572499968335032 0.00564999974519014 16 -0.0609555467963219 -0.424808710813522 0.12029293179512 0.445699900388718
0.00414999989420176 0.0572499968335032 0.00564999974519014 16 -0.162617087364197 -0.372691780328751 0.215731173753738 0.460307955741882
0.006949999935925 0.0572499968335032 0.00564999974519014 16 -0.249073088169098 -0.242759585380554 0.302666962146759 0.461060643196106
0.00974999997764826 0.0572499968335032 0.00564999974519014 16 -0.29599204659462 -0.0551907308399677 0.356088787317276 0.466322362422943
0.0125500000193715 0.0572499968335032 0.00564999974519014 16 -0.286954075098038 0.146730706095695 0.357638627290726 0.481433182954788
0.0153500000610948 0.0572499968335032 0.00564999974519014 16 -0.223936647176743 0.312675416469574 0.299318641424179 0.487345039844513
0.018150000102818 0.0572499968335032 0.00564999974519014 16 -0.123262047767639 0.406304270029068 0.198385506868362 0.468650728464127
0.0209500001445413 0.0572499968335032 0.00564999974519014 16 -0.0147673077881336 0.413916647434235 0.0825249776244164 0.422321498394012
0.0237500001862645 0.0572499968335032 0.00564999974519014 16 0.0748484060168266 0.353672295808792 -0.0113476999104023 0.361683756113052
0.0265500002279878 0.0572499968335032 0.00564999974519014 16 0.13274322450161 0.258537828922272 -0.0730388760566711 0.299661904573441
0.029350000269711 0.0572499968335032 0.00564999974519014 16 0.159082770347595 0.166778862476349 -0.0976318344473839 0.250308811664581
0.0321500003114343 0.0572499968335032 0.00564999974519014 16 0.167604565620422 0.102542713284492 -0.105555713176727 0.223043292760849
0.0349500003531575 0.0572499968335032 0.00564999974519014 16 0.167595967650414 0.0766248479485512 -0.10423306375742 0.211717516183853
-0.0350500006899238 0.05444999679178 0.00564999974519014 16 -0.0633854568004608 0.474215984344482 0.17339152097702 0.508884191513062
-0.0322500006482005 0.05444999679178 0.00564999974519014 16 -0.0437784977257252 0.465714126825333 0.149212792515755 0.490989476442337
-0.0294500006064773 0.05444999679178 0.00564999974519014 16 -0.0041899005882442 0.435311526060104 0.100512824952602 0.446784645318985
-0.026650000564754 0.05444999679178 0.00564999974519014 16 0.0389244928956032 0.370453417301178 0.0473634973168373 0.375491887331009
-0.0238500005230308 0.05444999679178 0.00564999974519014 16 0.0662608817219734 0.278907030820847 0.0153499934822321 0.287080585956573
-0.0210500004813075 0.05444999679178 0.00564999974519014 16 0.0763439536094666 0.180486157536507 0.00413605710491538 0.196012139320374
-0.0182500004395843 0.05444999679178 0.00564999974519014 16 0.0693371221423149 0.0958324000239372 0.0146393524482846 0.119188070297241
-0.015450000397861 0.05444999679178 0.00564999974519014 16 0.0616540461778641 0.0264320205897093 0.0238233059644699 0.0711858347058296
-0.0126500003561378 0.05444999679178 0.00564999974519014 16 0.056806493550539 -0.0424677133560181 0.0296872947365046 0.0768883600831032
-0.0098500003144145 0.05444999679178 0.00564999974519014 16 0.0593423619866371 -0.13040979206562 0.0257966667413712 0.145580559968948
-0.00705000027269125 0.05444999679178 0.00564999974519014 16 0.0599746257066727 -0.239186003804207 0.0239665042608976 0.247752487659454
-0.004250000230968 0.05444999679178 0.00564999974519014 16 0.0482769422233105 -0.35375240445137 0.0329960100352764 0.358552873134613
-0.00145000018924474 0.05444999679178 0.00564999974519014 16 0.0196664445102215 -0.440249979496002 0.0556367114186287 0.444187194108963
0.0013499998524785 0.05444999679178 0.00564999974519014 16 -0.0288424082100391 -0.468066811561584 0.0936125591397285 0.478206813335419
0.00414999989420176 0.05444999679178 0.00564999974519014 16 -0.0845971703529358 -0.411166280508041 0.138153702020645 0.441928565502167
0.006949999935925 0.05444999679178 0.00564999974519014 16 -0.137401804327965 -0.26778107881546 0.184224367141724 0.352880388498306
0.00974999997764826 0.05444999679178 0.00564999974519014 16 -0.168604016304016 -0.0593800432980061 0.217146068811417 0.281257390975952
0.0125500000193715 0.05444999679178 0.00564999974519014 16 -0.169011443853378 0.165523633360863 0.224267348647118 0.325973600149155
0.0153500000610948 0.05444999679178 0.00564999974519014 16 -0.136423677206039 0.350730806589127 0.196528732776642 0.424555122852325
0.018150000102818 0.05444999679178 0.00564999974519014 16 -0.0805353596806526 0.453753083944321 0.139425128698349 0.481473952531815
0.0209500001445413 0.05444999679178 0.00564999974519014 16 -0.0182224567979574 0.461993277072906 0.0706927999854088 0.467725694179535
0.0237500001862645 0.05444999679178 0.00564999974519014 16 0.0332304984331131 0.393530070781708 0.0146210249513388 0.395201146602631
0.0265500002279878 0.05444999679178 0.00564999974519014 16 0.0667067915201187 0.286919265985489 -0.0201197937130928 0.295257955789566
0.029350000269711 0.05444999679178 0.00564999974519014 16 0.0799255669116974 0.181135624647141 -0.0299062766134739 0.200231358408928
0.0321500003114343 0.05444999679178 0.00564999974519014 16 0.0844781175255775 0.106028445065022 -0.0310887061059475 0.13908663392067
0.0349500003531575 0.05444999679178 0.00564999974519014 16 0.083073765039444 0.0750164687633514 -0.0271727927029133 0.115182816982269
-0.0350500006899238 0.0516499967500567 0.00564999974519014 16 0.0248923096805811 0.48750564455986 0.103373564779758 0.49896639585495
-0.0322500006482005 0.0516499967500567 0.00564999974519014 16 0.0232546478509903 0.477501690387726 0.100305244326591 0.488477021455765
-0.0294500006064773 0.0516499967500567 0.00564999974519014 16 0.0166308470070362 0.44381907582283 0.096943698823452 0.454587757587433
-0.026650000564754 0.0516499967500567 0.00564999974519014 16 0.00891940854489803 0.375281810760498 0.0902416706085205 0.386082321405411
-0.0238500005230308 0.0516499967500567 0.00564999974519014 16 -0.00337909418158233 0.280256330966949 0.0903862118721008 0.294490575790405
-0.0210500004813075 0.0516499967500567 0.00564999974519014 16 -0.0169844981282949 0.179390519857407 0.0945113748311996 0.203474402427673
-0.0182500004395843 0.0516499967500567 0.00564999974519014 16 -0.0348935499787331 0.0920291170477867 0.111653186380863 0.148840025067329
-0.015450000397861 0.0516499967500567 0.00564999974519014 16 -0.0487501360476017 0.0213513839989901 0.127515435218811 0.138176128268242
-0.0126500003561378 0.0516499967500567 0.00564999974519014 16 -0.0565193668007851 -0.0484253987669945 0.142746552824974 0.160984590649605
-0.0098500003144145 0.0516499967500567 0.00564999974519014 16 -0.0519990101456642 -0.13631996512413 0.142529621720314 0.20396500825882
-0.00705000027269125 0.0516499967500567 0.00564999974519014 16 -0.0382874645292759 -0.244899407029152 0.131929367780685 0.280797094106674
-0.004250000230968 0.0516499967500567 0.00564999974519014 16 -0.0207478925585747 -0.359481632709503 0.109935730695724 0.376488238573074
-0.00145000018924474 0.0516499967500567 0.00564999974519014 16 -0.00349471811205149 -0.445745885372162 0.0827883630990982 0.453382313251495
0.0013499998524785 0.0516499967500567 0.00564999974519014 16 0.00528964819386601 -0.472478806972504 0.0572667121887207 0.475966036319733
0.00414999989420176 0.0516499967500567 0.00564999974519014 16 0.00767382886260748 -0.413813531398773 0.0377895720303059 0.415606290102005
0.006949999935925 0.0516499967500567 0.00564999974519014 16 -0.000155384768731892 -0.266915529966354 0.0321783125400543 0.268848210573196
0.00974999997764826 0.0516499967500567 0.00564999974519014 16 -0.00896801520138979 -0.0554861053824425 0.0372491292655468 0.0674287080764771
0.0125500000193715 0.0516499967500567 0.00564999974519014 16 -0.0165165383368731 0.172062188386917 0.0468675307929516 0.179094269871712
0.0153500000610948 0.0516499967500567 0.00564999974519014 16 -0.0186331328004599 0.359394133090973 0.0536095909774303 0.363847941160202
0.018150000102818 0.0516499967500567 0.00564999974519014 16 -0.017088832333684 0.46515417098999 0.0530035831034184 0.468476057052612
0.0209500001445413 0.0516499967500567 0.00564999974519014 16 -0.0149495713412762 0.477647989988327 0.0493075810372829 0.480418920516968
0.0237500001862645 0.0516499967500567 0.00564999974519014 16 -0.0151100419461727 0.411855399608612 0.0475811026990414 0.414870023727417
0.0265500002279878 0.0516499967500567 0.00564999974519014 16 -0.0165691934525967 0.305232435464859 0.0510218814015388 0.309910655021667
0.029350000269711 0.0516499967500567 0.00564999974519014 16 -0.0212138872593641 0.194877862930298 0.0603526905179024 0.205109387636185
0.0321500003114343 0.0516499967500567 0.00564999974519014 16 -0.0225792154669762 0.114374332129955 0.0678553581237793 0.134891286492348
0.0349500003531575 0.0516499967500567 0.00564999974519014 16 -0.0245449803769588 0.0798946768045425 0.0724046751856804 0.110580526292324
-0.0350500006899238 0.0488499967083335 0.00564999974519014 16 0.101286597549915 0.44100946187973 0.0317078568041325 0.453600823879242
-0.0322500006482005 0.0488499967083335 0.00564999974519014 16 0.0814160630106926 0.432739496231079 0.0469447299838066 0.442827105522156
-0.0294500006064773 0.0488499967083335 0.00564999974519014 16 0.0367004051804543 0.404381603002548 0.0810776427388191 0.414059162139893
-0.026650000564754 0.0488499967083335 0.00564999974519014 16 -0.013202385045588 0.344258010387421 0.114693738520145 0.363101273775101
-0.0238500005230308 0.0488499967083335 0.00564999974519014 16 -0.0585472695529461 0.258642047643661 0.145005837082863 0.302241921424866
-0.0210500004813075 0.0488499967083335 0.00564999974519014 16 -0.0929191932082176 0.165483742952347 0.167255014181137 0.252968549728394
-0.0182500004395843 0.0488499967083335 0.00564999974519014 16 -0.120656043291092 0.0817391574382782 0.192991584539413 0.241836547851562
-0.015450000397861 0.0488499967083335 0.00564999974519014 16 -0.139828488230705 0.0117007913067937 0.216177731752396 0.25772413611412
-0.0126500003561378 0.0488499967083335 0.00564999974519014 16 -0.14906319975853 -0.0569456405937672 0.237161546945572 0.285846531391144
-0.0098500003144145 0.0488499967083335 0.00564999974519014 16 -0.141495019197464 -0.138119250535965 0.236324593424797 0.308134853839874
-0.00705000027269125 0.0488499967083335 0.00564999974519014 16 -0.115560583770275 -0.233683481812477 0.211975172162056 0.335999518632889
-0.004250000230968 0.0488499967083335 0.00564999974519014 16 -0.0726909935474396 -0.330859541893005 0.158600702881813 0.374040365219116
-0.00145000018924474 0.0488499967083335 0.00564999974519014 16 -0.0176490806043148 -0.402122974395752 0.086310975253582 0.411660015583038
0.0013499998524785 0.0488499967083335 0.00564999974519014 16 0.0383550636470318 -0.420142889022827 0.00676845898851752 0.421944290399551
0.00414999989420176 0.0488499967083335 0.00564999974519014 16 0.0870297998189926 -0.364844232797623 -0.0650672614574432 0.380682617425919
0.006949999935925 0.0488499967083335 0.00564999974519014 16 0.115747161209583 -0.232143476605415 -0.11270410567522 0.282825410366058
0.00974999997764826 0.0488499967083335 0.00564999974519014 16 0.124459736049175 -0.0451862402260303 -0.130845680832863 0.186152130365372
0.0125500000193715 0.0488499967083335 0.00564999974519014 16 0.112456932663918 0.156393945217133 -0.120588511228561 0.227260231971741
0.0153500000610948 0.0488499967083335 0.00564999974519014 16 0.0837769731879234 0.322896957397461 -0.0882550999522209 0.345065176486969
0.018150000102818 0.0488499967083335 0.00564999974519014 16 0.0417129173874855 0.421379745006561 -0.0413787178695202 0.425456285476685
0.0209500001445413 0.0488499967083335 0.00564999974519014 16 -0.00763155613094568 0.441076964139938 0.0148880137130618 0.441394120454788
0.0237500001862645 0.0488499967083335 0.00564999974519014 16 -0.0547689758241177 0.39326599240303 0.0711373314261436 0.403383553028107
0.0265500002279878 0.0488499967083335 0.00564999974519014 16 -0.0907522365450859 0.305584520101547 0.120775364339352 0.340887874364853
0.029350000269711 0.0488499967083335 0.00564999974519014 16 -0.11419727653265 0.207596153020859 0.156305149197578 0.283845871686935
0.0321500003114343 0.0488499967083335 0.00564999974519014 16 -0.123676873743534 0.131445288658142 0.176825433969498 0.252667903900146
0.0349500003531575 0.0488499967083335 0.00564999974519014 16 -0.126987338066101 0.0972083359956741 0.183526322245598 0.243427917361259
-0.0350500006899238 0.0460499966666102 0.00564999974519014 16 0.141987606883049 0.354285389184952 -0.0118267415091395 0.3818618953228
-0.0322500006482005 0.0460499966666102 0.00564999974519014 16 0.115002110600471 0.349193930625916 0.0104284910485148 0.367791563272476
-0.0294500006064773 0.0460499966666102 0.00564999974519014 16 0.055675994604826 0.330641746520996 0.0604594796895981 0.340703874826431
-0.026650000564754 0.0460499966666102 0.00564999974519014 16 -0.0125880241394043 0.287238597869873 0.113719128072262 0.309186846017838
-0.0238500005230308 0.0460499966666102 0.00564999974519014 16 -0.0739020332694054 0.221209555864334 0.16107439994812 0.283443361520767
-0.0210500004813075 0.0460499966666102 0.00564999974519014 16 -0.120425745844841 0.143201351165771 0.197816714644432 0.272287428379059
-0.0182500004395843 0.0460499966666102 0.00564999974519014 16 -0.154174223542213 0.0676544159650803 0.231701612472534 0.286413073539734
-0.015450000397861 0.0460499966666102 0.00564999974519014 16 -0.175492405891418 -0.000163182106916793 0.259895265102386 0.313597112894058
-0.0126500003561378 0.0460499966666102 0.00564999974519014 16 -0.183060526847839 -0.0641727223992348 0.278509616851807 0.339406698942184
-0.0098500003144145 0.0460499966666102 0.00564999974519014 16 -0.172176867723465 -0.132273256778717 0.271545708179474 0.347675353288651
-0.00705000027269125 0.0460499966666102 0.00564999974519014 16 -0.140596002340317 -0.205128237605095 0.234467178583145 0.341788947582245
-0.004250000230968 0.0460499966666102 0.00564999974519014 16 -0.0880865007638931 -0.274674326181412 0.163973122835159 0.331801742315292
-0.00145000018924474 0.0460499966666102 0.00564999974519014 16 -0.0192990135401487 -0.323202192783356 0.0702747404575348 0.331316560506821
0.0013499998524785 0.0460499966666102 0.00564999974519014 16 0.0550515577197075 -0.330578148365021 -0.032281219959259 0.336681842803955
0.00414999989420176 0.0460499966666102 0.00564999974519014 16 0.121509611606598 -0.283584207296371 -0.125143945217133 0.332934826612473
0.006949999935925 0.0460499966666102 0.00564999974519014 16 0.16616153717041 -0.178040057420731 -0.19074447453022 0.309340208768845
0.00974999997764826 0.0460499966666102 0.00564999974519014 16 0.184347540140152 -0.0343196652829647 -0.221724674105644 0.29038542509079
0.0125500000193715 0.0460499966666102 0.00564999974519014 16 0.174287125468254 0.120340451598167 -0.215936362743378 0.302467077970505
0.0153500000610948 0.0460499966666102 0.00564999974519014 16 0.137387722730637 0.249284669756889 -0.175700336694717 0.334497898817062
0.018150000102818 0.0460499966666102 0.00564999974519014 16 0.076332189142704 0.333018124103546 -0.104126706719398 0.357169508934021
0.0209500001445413 0.0460499966666102 0.00564999974519014 16 0.000989194144494832 0.361240088939667 -0.0119503326714039 0.361439049243927
0.0237500001862645 0.0460499966666102 0.00564999974519014 16 -0.0732672363519669 0.339343130588531 0.0817738920450211 0.356663435697556
0.0265500002279878 0.0460499966666102 0.00564999974519014 16 -0.130767866969109 0.281274259090424 0.160457983613014 0.349230885505676
0.029350000269711 0.0460499966666102 0.00564999974519014 16 -0.166622802615166 0.207904785871506 0.211811631917953 0.340369999408722
0.0321500003114343 0.0460499966666102 0.00564999974519014 16 -0.182164624333382 0.14605176448822 0.240477710962296 0.335178464651108
0.0349500003531575 0.0460499966666102 0.00564999974519014 16 -0.1864033639431 0.116950616240501 0.247867494821548 0.331454306840897
-0.0350500006899238 0.043249996624887 0.00564999974519014 16 0.1418267339468 0.266287505626678 -0.0325957611203194 0.303457319736481
-0.0322500006482005 0.043249996624887 0.00564999974519014 16 0.11671856045723 0.263789266347885 -0.00902879238128662 0.288599222898483
-0.0294500006064773 0.043249996624887 0.00564999974519014 16 0.0624700710177422 0.253202140331268 0.0425469316542149 0.264242440462112
-0.026650000564754 0.043249996624887 0.00564999974519014 16 -0.000866520451381803 0.223715886473656 0.0992182791233063 0.24473212659359
-0.0238500005230308 0.043249996624887 0.00564999974519014 16 -0.0584481656551361 0.175258874893188 0.151026129722595 0.23862262070179
-0.0210500004813075 0.043249996624887 0.00564999974519014 16 -0.103999458253384 0.112645924091339 0.193046003580093 0.246519267559052
-0.0182500004395843 0.043249996624887 0.00564999974519014 16 -0.137582093477249 0.0481906235218048 0.229524999856949 0.271906048059464
-0.015450000397861 0.043249996624887 0.00564999974519014 16 -0.158557325601578 -0.0137173747643828 0.25806075334549 0.303189605474472
-0.0126500003561378 0.043249996624887 0.00564999974519014 16 -0.164396703243256 -0.0701118782162666 0.27128741145134 0.324867367744446
-0.0098500003144145 0.043249996624887 0.00564999974519014 16 -0.151422142982483 -0.124354355037212 0.256580382585526 0.32284078001976
-0.00705000027269125 0.043249996624887 0.00564999974519014 16 -0.118809126317501 -0.175166398286819 0.20955254137516 0.297844171524048
-0.004250000230968 0.043249996624887 0.00564999974519014 16 -0.0679541081190109 -0.218867048621178 0.133822485804558 0.265384644269943
-0.00145000018924474 0.043249996624887 0.00564999974519014 16 -0.00463784160092473 -0.245947360992432 0.040854636579752 0.249360620975494
0.0013499998524785 0.043249996624887 0.00564999974519014 16 0.0618115104734898 -0.24433134496212 -0.0551906116306782 0.258000940084457
0.00414999989420176 0.043249996624887 0.00564999974519014 16 0.119952671229839 -0.206972673535347 -0.140651017427444 0.27750501036644
0.006949999935925 0.043249996624887 0.00564999974519014 16 0.159452423453331 -0.13059364259243 -0.20315058529377 0.289395809173584
0.00974999997764826 0.043249996624887 0.00564999974519014 16 0.177034333348274 -0.0303973946720362 -0.236844062805176 0.297254532575607
0.0125500000193715 0.043249996624887 0.00564999974519014 16 0.170169845223427 0.0783290863037109 -0.238388031721115 0.303186535835266
0.0153500000610948 0.043249996624887 0.00564999974519014 16 0.13828918337822 0.171453669667244 -0.20499287545681 0.300902545452118
0.018150000102818 0.043249996624887 0.00564999974519014 16 0.0797862336039543 0.239882200956345 -0.13420344889164 0.286216497421265
0.0209500001445413 0.043249996624887 0.00564999974519014 16 0.00425879936665297 0.274230688810349 -0.0350854434072971 0.276498824357986
0.0237500001862645 0.043249996624887 0.00564999974519014 16 -0.0738475620746613 0.275700271129608 0.0717587918043137 0.294301599264145
0.0265500002279878 0.043249996624887 0.00564999974519014 16 -0.1360734552145 0.246823206543922 0.16427007317543 0.326224356889725
0.029350000269711 0.043249996624887 0.00564999974519014 16 -0.176819756627083 0.200116470456123 0.226341873407364 0.350060671567917
0.0321500003114343 0.043249996624887 0.00564999974519014 16 -0.196131661534309 0.155305355787277 0.26126503944397 0.361727505922318
0.0349500003531575 0.043249996624887 0.00564999974519014 16 -0.202389597892761 0.13315287232399 0.271641969680786 0.363978832960129
-0.0350500006899238 0.0404499965831637 0.00564999974519014 16 0.116806037724018 0.201294362545013 -0.0299369618296623 0.234647169709206
-0.0322500006482005 0.0404499965831637 0.00564999974519014 16 0.0987854674458504 0.199850991368294 -0.0102797606959939 0.223169595003128
-0.0294500006064773 0.0404499965831637 0.00564999974519014 16 0.0600140653550625 0.192844957113266 0.0330696813762188 0.204656958580017
-0.026650000564754 0.0404499965831637 0.00564999974519014 16 0.0134588303044438 0.171645879745483 0.0812801048159599 0.190394073724747
-0.0238500005230308 0.0404499965831637 0.00564999974519014 16 -0.0308902189135551 0.135128438472748 0.12724195420742 0.188160613179207
-0.0210500004813075 0.0404499965831637 0.00564999974519014 16 -0.0676823556423187 0.0846869200468063 0.165168017148972 0.197568342089653
-0.0182500004395843 0.0404499965831637 0.00564999974519014 16 -0.0960344523191452 0.0302012842148542 0.198587641119957 0.222647219896317
-0.015450000397861 0.0404499965831637 0.00564999974519014 16 -0.11315980553627 -0.0245090890675783 0.221611708402634 0.250035166740417
-0.0126500003561378 0.0404499965831637 0.00564999974519014 16 -0.116752319037914 -0.0728680267930031 0.227736920118332 0.266092002391815
-0.0098500003144145 0.0404499965831637 0.00564999974519014 16 -0.103478364646435 -0.115640178322792 0.207363322377205 0.25899800658226
-0.00705000027269125 0.0404499965831637 0.00564999974519014 16 -0.0745576024055481 -0.150418996810913 0.159949600696564 0.23188054561615
-0.004250000230968 0.0404499965831637 0.00564999974519014 16 -0.0334031321108341 -0.176375493407249 0.0933535844087601 0.202333822846413
-0.00145000018924474 0.0404499965831637 0.00564999974519014 16 0.0133622847497463 -0.189263105392456 0.0187230817973614 0.190655767917633
0.0013499998524785 0.0404499965831637 0.00564999974519014 16 0.0581841133534908 -0.183159291744232 -0.0524812303483486 0.199215948581696
0.00414999989420176 0.0404499965831637 0.00564999974519014 16 0.0958074256777763 -0.154657110571861 -0.114732779562473 0.215084865689278
0.006949999935925 0.0404499965831637 0.00564999974519014 16 0.121372677385807 -0.101322241127491 -0.163528263568878 0.227462127804756
0.00974999997764826 0.0404499965831637 0.00564999974519014 16 0.135061115026474 -0.0336623564362526 -0.195916727185249 0.240328997373581
0.0125500000193715 0.0404499965831637 0.00564999974519014 16 0.132719844579697 0.0403212644159794 -0.207312658429146 0.249437168240547
0.0153500000610948 0.0404499965831637 0.00564999974519014 16 0.111494220793247 0.106284886598587 -0.187647223472595 0.242773398756981
0.018150000102818 0.0404499965831637 0.00564999974519014 16 0.0665465816855431 0.161748856306076 -0.131371438503265 0.218745499849319
0.0209500001445413 0.0404499965831637 0.00564999974519014 16 0.00471235765144229 0.198931261897087 -0.0430329740047455 0.203587055206299
0.0237500001862645 0.0404499965831637 0.00564999974519014 16 -0.0630619674921036 0.215737923979759 0.0559310391545296 0.231620267033577
0.0265500002279878 0.0404499965831637 0.00564999974519014 16 -0.118983656167984 0.208482816815376 0.142956092953682 0.279389768838882
0.029350000269711 0.0404499965831637 0.00564999974519014 16 -0.158196806907654 0.184439286589622 0.202486127614975 0.316298454999924
0.0321500003114343 0.0404499965831637 0.00564999974519014 16 -0.177561402320862 0.156636297702789 0.236205011606216 0.334448486566544
0.0349500003531575 0.0404499965831637 0.00564999974519014 16 -0.184885859489441 0.142459318041801 0.246909275650978 0.339767009019852
-0.0350500006899238 0.0376499965414405 0.00564999974519014 16 0.076062336564064 0.164302170276642 -0.0168163292109966 0.181833639740944
-0.0322500006482005 0.0376499965414405 0.00564999974519014 16 0.0655008479952812 0.162063241004944 -0.00168869376648217 0.174807623028755
-0.0294500006064773 0.0376499965414405 0.00564999974519014 16 0.0419687554240227 0.15363934636116 0.0316854529082775 0.162389636039734
-0.026650000564754 0.0376499965414405 0.00564999974519014 16 0.0132261896505952 0.134464457631111 0.0685805082321167 0.15152196586132
-0.0238500005230308 0.0376499965414405 0.00564999974519014 16 -0.0158693976700306 0.103329822421074 0.105321384966373 0.148396372795105
-0.0210500004813075 0.0376499965414405 0.00564999974519014 16 -0.040564276278019 0.0612767934799194 0.134451612830162 0.15322382748127
-0.0182500004395843 0.0376499965414405 0.00564999974519014 16 -0.0606487654149532 0.0149968378245831 0.160403594374657 0.172140911221504
-0.015450000397861 0.0376499965414405 0.00564999974519014 16 -0.0716667324304581 -0.0325097739696503 0.174760237336159 0.191661536693573
-0.0126500003561378 0.0376499965414405 0.00564999974519014 16 -0.0722328871488571 -0.0745192542672157 0.175343960523605 0.203755274415016
-0.0098500003144145 0.0376499965414405 0.00564999974519014 16 -0.0590156279504299 -0.110091656446457 0.153894826769829 0.198208570480347
-0.00705000027269125 0.0376499965414405 0.00564999974519014 16 -0.0350006744265556 -0.135948404669762 0.113577358424664 0.180573627352715
-0.004250000230968 0.0376499965414405 0.00564999974519014 16 -0.00494901044294238 -0.152201861143112 0.0633886381983757 0.164948537945747