TITLE="DynamicStudio Exported Data"
VARIABLES= "X (m)[m]" "Y (m)[m]" "Z (m)[m]" "Status[-]" "U[-]" "V[-]" "W[-]" "Length[-]"
ZONE T="DynamicStudio Data" F=POINT
-0.0350500006899238 0.0600499968752265 0.00564999974519014 16 -0.353133589029312 -0.203975036740303 0.467135816812515 0.620100796222687
-0.0322500006482005 0.0600499968752265 0.00564999974519014 16 -0.354338437318802 -0.148327574133873 0.467950463294983 0.605420827865601
-0.0294500006064773 0.0600499968752265 0.00564999974519014 16 -0.346631169319153 -0.02674949914217 0.457029551267624 0.574234008789062
-0.026650000564754 0.0600499968752265 0.00564999974519014 16 -0.305111944675446 0.113140903413296 0.396259278059006 0.512752950191498
-0.0238500005230308 0.0600499968752265 0.00564999974519014 16 -0.22738578915596 0.232008695602417 0.291963845491409 0.436778217554092
-0.0210500004813075 0.0600499968752265 0.00564999974519014 16 -0.122594192624092 0.298814713954926 0.156870365142822 0.359065264463425
-0.0182500004395843 0.0600499968752265 0.00564999974519014 16 -0.0137189822271466 0.30778107047081 0.028932174667716 0.309442192316055
-0.015450000397861 0.0600499968752265 0.00564999974519014 16 0.0747799053788185 0.265863716602325 -0.0698092356324196 0.28486642241478
-0.0126500003561378 0.0600499968752265 0.00564999974519014 16 0.134573504328728 0.19417442381382 -0.132235884666443 0.270739853382111
-0.0098500003144145 0.0600499968752265 0.00564999974519014 16 0.164195775985718 0.114670179784298 -0.163111224770546 0.25829204916954
-0.00705000027269125 0.0600499968752265 0.00564999974519014 16 0.176053032279015 0.0436079427599907 -0.176652759313583 0.253184765577316
-0.004250000230968 0.0600499968752265 0.00564999974519014 16 0.178418576717377 -0.0148159814998507 -0.184235975146294 0.256896078586578
-0.00145000018924474 0.0600499968752265 0.00564999974519014 16 0.175438120961189 -0.0676332041621208 -0.190085545182228 0.267367333173752
0.0013499998524785 0.0600499968752265 0.00564999974519014 16 0.164085566997528 -0.12410594522953 -0.190968170762062 0.280704826116562
0.00414999989420176 0.0600499968752265 0.00564999974519014 16 0.13563996553421 -0.189634785056114 -0.172071546316147 0.289772629737854
0.006949999935925 0.0600499968752265 0.00564999974519014 16 0.0839774087071419 -0.257189065217972 -0.126571416854858 0.298695087432861
0.00974999997764826 0.0600499968752265 0.00564999974519014 16 0.00458740210160613 -0.308468282222748 -0.0438196919858456 0.311598926782608
0.0125500000193715 0.0600499968752265 0.00564999974519014 16 -0.0936356484889984 -0.319464951753616 0.0636896789073944 0.338942259550095
0.0153500000610948 0.0600499968752265 0.00564999974519014 16 -0.194781243801117 -0.272593230009079 0.185133159160614 0.382780730724335
0.018150000102818 0.0600499968752265 0.00564999974519014 16 -0.27213191986084 -0.164480477571487 0.284400671720505 0.426606774330139
0.0209500001445413 0.0600499968752265 0.00564999974519014 16 -0.304008096456528 -0.0148707227781415 0.338690549135208 0.455360680818558
0.0237500001862645 0.0600499968752265 0.00564999974519014 16 -0.278839021921158 0.144205436110497 0.32533860206604 0.452096879482269
0.0265500002279878 0.0600499968752265 0.00564999974519014 16 -0.206199005246162 0.271683365106583 0.257216393947601 0.427188664674759
0.029350000269711 0.0600499968752265 0.00564999974519014 16 -0.111269854009151 0.34815326333046 0.159874081611633 0.398937851190567
0.0321500003114343 0.0600499968752265 0.00564999974519014 16 -0.0300907324999571 0.375922560691833 0.0757386758923531 0.384655147790909
0.0349500003531575 0.0600499968752265 0.00564999974519014 16 0.00740562938153744 0.382097989320755 0.0360749736428261 0.383868634700775
-0.0350500006899238 0.0572499968335032 0.00564999974519014 16 -0.298470824956894 -0.22005794942379 0.413415819406509 0.555358409881592
-0.0322500006482005 0.0572499968335032 0.00564999974519014 16 -0.298835158348083 -0.159291803836823 0.412863731384277 0.533978223800659
-0.0294500006064773 0.0572499968335032 0.00564999974519014 16 -0.291818082332611 -0.0267924405634403 0.402682423591614 0.498024880886078
-0.026650000564754 0.0572499968335032 0.00564999974519014 16 -0.257305204868317 0.125945970416069 0.349332392215729 0.451775908470154
-0.0238500005230308 0.0572499968335032 0.00564999974519014 16 -0.193283647298813 0.254490196704865 0.258842259645462 0.411245852708817
-0.0210500004813075 0.0572499968335032 0.00564999974519014 16 -0.106650657951832 0.325660556554794 0.141090750694275 0.370588392019272
-0.0182500004395843 0.0572499968335032 0.00564999974519014 16 -0.0159186199307442 0.333005130290985 0.0300385765731335 0.334735929965973
-0.015450000397861 0.0572499968335032 0.00564999974519014 16 0.0591115914285183 0.285208344459534 -0.0568946935236454 0.296774297952652
-0.0126500003561378 0.0572499968335032 0.00564999974519014 16 0.1105065792799 0.205971464514732 -0.111772432923317 0.259092688560486
-0.0098500003144145 0.0572499968335032 0.00564999974519014 16 0.136417135596275 0.12003630399704 -0.139344424009323 0.228987380862236
-0.00705000027269125 0.0572499968335032 0.00564999974519014 16 0.146616697311401 0.0447478145360947 -0.150326833128929 0.214702069759369
-0.004250000230968 0.0572499968335032 0.00564999974519014 16 0.148207128047943 -0.0162523332983255 -0.15578205883503 0.215632885694504
-0.00145000018924474 0.0572499968335032 0.00564999974519014 16 0.145141407847404 -0.0709584876894951 -0.159280091524124 0.226872831583023
0.0013499998524785 0.0572499968335032 0.00564999974519014 16 0.135424062609673 -0.13033065199852 -0.159628704190254 0.246590912342072
0.00414999989420176 0.0572499968335032 0.00564999974519014 16 0.112320147454739 -0.200560107827187 -0.143940016627312 0.271217435598373
0.006949999935925 0.0572499968335032 0.00564999974519014 16 0.070530466735363 -0.274526715278625 -0.10722878575325 0.303046971559525
0.00974999997764826 0.0572499968335032 0.00564999974519014 16 0.00564868655055761 -0.332123637199402 -0.0395923815667629 0.334522902965546
0.0125500000193715 0.0572499968335032 0.00564999974519014 16 -0.075334332883358 -0.346321195363998 0.0479771606624126 0.357652693986893
0.0153500000610948 0.0572499968335032 0.00564999974519014 16 -0.159613236784935 -0.297313064336777 0.14895798265934 0.368863016366959
0.018150000102818 0.0572499968335032 0.00564999974519014 16 -0.224771812558174 -0.181102588772774 0.232599258422852 0.370705962181091
0.0209500001445413 0.0572499968335032 0.00564999974519014 16 -0.252390265464783 -0.0190399624407291 0.280895918607712 0.378108292818069
0.0237500001862645 0.0572499968335032 0.00564999974519014 16 -0.232425034046173 0.153495013713837 0.272872269153595 0.389924854040146
0.0265500002279878 0.0572499968335032 0.00564999974519014 16 -0.172683954238892 0.292128622531891 0.218792021274567 0.403768271207809
0.029350000269711 0.0572499968335032 0.00564999974519014 16 -0.0946879014372826 0.374941527843475 0.139499589800835 0.411104708909988
0.0321500003114343 0.0572499968335032 0.00564999974519014 16 -0.0281761456280947 0.404937505722046 0.070159338414669 0.411935210227966
0.0349500003531575 0.0572499968335032 0.00564999974519014 16 0.00250818347558379 0.410477757453918 0.0374854169785976 0.412193447351456
-0.0350500006899238 0.05444999679178 0.00564999974519014 16 -0.166069239377975 -0.240727260708809 0.270481646060944 0.398357808589935
-0.0322500006482005 0.05444999679178 0.00564999974519014 16 -0.164541408419609 -0.171879693865776 0.269185274839401 0.359273165464401
-0.0294500006064773 0.05444999679178 0.00564999974519014 16 -0.158676594495773 -0.0226205009967089 0.262280851602554 0.307377934455872
-0.026650000564754 0.05444999679178 0.00564999974519014 16 -0.139342039823532 0.14958031475544 0.226602658629417 0.305187225341797
-0.0238500005230308 0.05444999679178 0.00564999974519014 16 -0.10748116672039 0.292141765356064 0.171608805656433 0.355455458164215
-0.0210500004813075 0.05444999679178 0.00564999974519014 16 -0.0640531480312347 0.369304329156876 0.0987225472927094 0.387601137161255
-0.0182500004395843 0.05444999679178 0.00564999974519014 16 -0.016829701140523 0.373504161834717 0.0306555610150099 0.375137776136398
-0.015450000397861 0.05444999679178 0.00564999974519014 16 0.0244964174926281 0.316842943429947 -0.0254673343151808 0.318807333707809
-0.0126500003561378 0.05444999679178 0.00564999974519014 16 0.0542384199798107 0.226294383406639 -0.061328012496233 0.240649282932281
-0.0098500003144145 0.05444999679178 0.00564999974519014 16 0.0695454776287079 0.130032315850258 -0.0793830901384354 0.167471349239349
-0.00705000027269125 0.05444999679178 0.00564999974519014 16 0.0746669173240662 0.0470907539129257 -0.0836556777358055 0.121618092060089
-0.004250000230968 0.05444999679178 0.00564999974519014 16 0.0740822777152061 -0.0191250741481781 -0.0840135142207146 0.113631963729858
-0.00145000018924474 0.05444999679178 0.00564999974519014 16 0.0711589530110359 -0.0775632709264755 -0.0837287306785583 0.134499654173851
0.0013499998524785 0.05444999679178 0.00564999974519014 16 0.0660767033696175 -0.141392201185226 -0.0848866999149323 0.177661582827568
0.00414999989420176 0.05444999679178 0.00564999974519014 16 0.055541105568409 -0.218138039112091 -0.0779229998588562 0.238203719258308
0.006949999935925 0.05444999679178 0.00564999974519014 16 0.0367036275565624 -0.300785392522812 -0.0618192106485367 0.309258162975311
0.00974999997764826 0.05444999679178 0.00564999974519014 16 0.00583041831851006 -0.36711460351944 -0.0291748084127903 0.368318200111389
0.0125500000193715 0.05444999679178 0.00564999974519014 16 -0.0339045599102974 -0.385572969913483 0.0112044960260391 0.387222915887833
0.0153500000610948 0.05444999679178 0.00564999974519014 16 -0.0771914348006248 -0.333336710929871 0.0619758442044258 0.347725301980972
0.018150000102818 0.05444999679178 0.00564999974519014 16 -0.111918687820435 -0.20530503988266 0.106556676328182 0.256963580846786
0.0209500001445413 0.05444999679178 0.00564999974519014 16 -0.127921760082245 -0.0253666080534458 0.139428272843361 0.190912768244743
0.0237500001862645 0.05444999679178 0.00564999974519014 16 -0.119472466409206 0.166535273194313 0.143841147422791 0.250395566225052
0.0265500002279878 0.05444999679178 0.00564999974519014 16 -0.0907075107097626 0.321574568748474 0.124155797064304 0.35644456744194
0.029350000269711 0.05444999679178 0.00564999974519014 16 -0.0532216317951679 0.414514124393463 0.0879569873213768 0.427072525024414
0.0321500003114343 0.05444999679178 0.00564999974519014 16 -0.0217937827110291 0.448742419481277 0.0547225251793861 0.452591747045517
0.0349500003531575 0.05444999679178 0.00564999974519014 16 -0.00730796763673425 0.454403877258301 0.0385844931006432 0.456097632646561
-0.0350500006899238 0.0516499967500567 0.00564999974519014 16 -0.0077000642195344 -0.232642143964767 0.0938830971717834 0.250989437103271
-0.0322500006482005 0.0516499967500567 0.00564999974519014 16 -0.00285488273948431 -0.162434965372086 0.0900630429387093 0.18575419485569
-0.0294500006064773 0.0516499967500567 0.00564999974519014 16 0.00232296832837164 -0.0113998642191291 0.0871779918670654 0.0879508703947067
-0.026650000564754 0.0516499967500567 0.00564999974519014 16 0.00511530786752701 0.16379202902317 0.0746030509471893 0.180054470896721
-0.0238500005230308 0.0516499967500567 0.00564999974519014 16 0.00122864078730345 0.307028204202652 0.062022726982832 0.313232570886612
-0.0210500004813075 0.0516499967500567 0.00564999974519014 16 -0.00475851632654667 0.384747385978699 0.0433194413781166 0.38720765709877
-0.0182500004395843 0.0516499967500567 0.00564999974519014 16 -0.00957525428384542 0.387436240911484 0.0281702801585197 0.38857701420784
-0.015450000397861 0.0516499967500567 0.00564999974519014 16 -0.0111336894333363 0.328953355550766 0.0138518642634153 0.329433083534241
-0.0126500003561378 0.0516499967500567 0.00564999974519014 16 -0.0114461546763778 0.23548199236393 0.00634883809834719 0.235845476388931
-0.0098500003144145 0.0516499967500567 0.00564999974519014 16 -0.0123677439987659 0.136143445968628 0.00418875692412257 0.136768221855164
-0.00705000027269125 0.0516499967500567 0.00564999974519014 16 -0.0152600593864918 0.0493500903248787 0.00863131042569876 0.0523717515170574
-0.004250000230968 0.0516499967500567 0.00564999974519014 16 -0.0186103451997042 -0.0214381087571383 0.0129537647590041 0.0312047656625509
-0.00145000018924474 0.0516499967500567 0.00564999974519014 16 -0.0209503620862961 -0.0842034071683884 0.0149079142138362 0.0880419015884399
0.0013499998524785 0.0516499967500567 0.00564999974519014 16 -0.0195141397416592 -0.150975972414017 0.00971017312258482 0.152541249990463
0.00414999989420176 0.0516499967500567 0.00564999974519014 16 -0.0136629128828645 -0.228961452841759 0.0014486201107502 0.229373320937157
0.006949999935925 0.0516499967500567 0.00564999974519014 16 -0.00358848180621862 -0.31124022603035 -0.0120288683101535 0.311493247747421
0.00974999997764826 0.0516499967500567 0.00564999974519014 16 0.00735770305618644 -0.376810640096664 -0.0264373160898685 0.377808600664139
0.0125500000193715 0.0516499967500567 0.00564999974519014 16 0.0170324593782425 -0.393759518861771 -0.043884914368391 0.396563410758972
0.0153500000610948 0.0516499967500567 0.00564999974519014 16 0.0232295207679272 -0.33987882733345 -0.0541226044297218 0.344944179058075
0.018150000102818 0.0516499967500567 0.00564999974519014 16 0.0256957653909922 -0.210140317678452 -0.0561404041945934 0.219022765755653
0.0209500001445413 0.0516499967500567 0.00564999974519014 16 0.0252066366374493 -0.0281824953854084 -0.0441261120140553 0.058109737932682
0.0237500001862645 0.0516499967500567 0.00564999974519014 16 0.021105732768774 0.16552709043026 -0.0263195727020502 0.168930128216743
0.0265500002279878 0.0516499967500567 0.00564999974519014 16 0.0128897232934833 0.323736578226089 -0.00459392881020904 0.32402566075325
0.029350000269711 0.0516499967500567 0.00564999974519014 16 0.000798940716776997 0.420140862464905 0.0136859994381666 0.42036446928978
0.0321500003114343 0.0516499967500567 0.00564999974519014 16 -0.0117646604776382 0.45807945728302 0.0277430135756731 0.459069579839706
0.0349500003531575 0.0516499967500567 0.00564999974519014 16 -0.0178878381848335 0.465127676725388 0.0332357585430145 0.466656565666199
-0.0350500006899238 0.0488499967083335 0.00564999974519014 16 0.122534036636353 -0.191231861710548 -0.06778584420681 0.237021386623383
-0.0322500006482005 0.0488499967083335 0.00564999974519014 16 0.129610180854797 -0.127913609147072 -0.0713417828083038 0.195576950907707
-0.0294500006064773 0.0488499967083335 0.00564999974519014 16 0.135283872485161 0.00566912814974785 -0.0702250152826309 0.152530059218407
-0.026650000564754 0.0488499967083335 0.00564999974519014 16 0.126842617988586 0.16106578707695 -0.0626058503985405 0.21436120569706
-0.0238500005230308 0.0488499967083335 0.00564999974519014 16 0.0971033126115799 0.286851197481155 -0.0401258952915668 0.305487722158432
-0.0210500004813075 0.0488499967083335 0.00564999974519014 16 0.053581103682518 0.356233894824982 -0.0119911469519138 0.36044043302536
-0.0182500004395843 0.0488499967083335 0.00564999974519014 16 0.00689532561227679 0.358821034431458 0.0196355283260345 0.359424024820328
-0.015450000397861 0.0488499967083335 0.00564999974519014 16 -0.0317712426185608 0.307976990938187 0.0445929579436779 0.312806278467178
-0.0126500003561378 0.0488499967083335 0.00564999974519014 16 -0.0605678893625736 0.223924025893211 0.0652923062443733 0.240984484553337
-0.0098500003144145 0.0488499967083335 0.00564999974519014 16 -0.0788494721055031 0.132427528500557 0.0803132206201553 0.173794433474541
-0.00705000027269125 0.0488499967083335 0.00564999974519014 16 -0.0910003632307053 0.0487156249582767 0.0938068032264709 0.139477580785751
-0.004250000230968 0.0488499967083335 0.00564999974519014 16 -0.0971805900335312 -0.0223567560315132 0.101206004619598 0.142079368233681
-0.00145000018924474 0.0488499967083335 0.00564999974519014 16 -0.0978958904743195 -0.0862340852618217 0.101101696491241 0.16504992544651
0.0013499998524785 0.0488499967083335 0.00564999974519014 16 -0.0893287509679794 -0.150650501251221 0.0884958654642105 0.19623127579689
0.00414999989420176 0.0488499967083335 0.00564999974519014 16 -0.0689218565821648 -0.220912113785744 0.0637491047382355 0.240034028887749
0.006949999935925 0.0488499967083335 0.00564999974519014 16 -0.0349646136164665 -0.290696263313293 0.0236413031816483 0.29374435544014
0.00974999997764826 0.0488499967083335 0.00564999974519014 16 0.00989163108170033 -0.343843251466751 -0.0314358994364738 0.345418930053711
0.0125500000193715 0.0488499967083335 0.00564999974519014 16 0.0592308938503265 -0.354008138179779 -0.0966936349868774 0.37172532081604
0.0153500000610948 0.0488499967083335 0.00564999974519014 16 0.105384089052677 -0.303331911563873 -0.157817974686623 0.357802420854568
0.018150000102818 0.0488499967083335 0.00564999974519014 16 0.13834273815155 -0.188045829534531 -0.198513954877853 0.306443691253662
0.0209500001445413 0.0488499967083335 0.00564999974519014 16 0.151613354682922 -0.0276604276150465 -0.2056944668293 0.257025152444839
0.0237500001862645 0.0488499967083335 0.00564999974519014 16 0.138598456978798 0.14268596470356 -0.178741440176964 0.267427206039429
0.0265500002279878 0.0488499967083335 0.00564999974519014 16 0.101048931479454 0.284424215555191 -0.123995393514633 0.326317131519318
0.029350000269711 0.0488499967083335 0.00564999974519014 16 0.0488173104822636 0.373601347208023 -0.0597049780189991 0.381478428840637
0.0321500003114343 0.0488499967083335 0.00564999974519014 16 0.000651233189273626 0.412442654371262 -0.00463023129850626 0.412469148635864
0.0349500003531575 0.0488499967083335 0.00564999974519014 16 -0.0220205467194319 0.421534478664398 0.0202154014259577 0.422593027353287
-0.0350500006899238 0.0460499966666102 0.00564999974519014 16 0.172093316912651 -0.127922758460045 -0.146688342094421 0.259803414344788
-0.0322500006482005 0.0460499966666102 0.00564999974519014 16 0.180142387747765 -0.0792929008603096 -0.149441838264465 0.247126504778862
-0.0294500006064773 0.0460499966666102 0.00564999974519014 16 0.187498345971107 0.0222768746316433 -0.146307930350304 0.238867953419685
-0.026650000564754 0.0460499966666102 0.00564999974519014 16 0.177689358592033 0.140961140394211 -0.129163026809692 0.26101079583168
-0.0238500005230308 0.0460499966666102 0.00564999974519014 16 0.142200008034706 0.237075984477997 -0.0923653617501259 0.291474223136902
-0.0210500004813075 0.0460499966666102 0.00564999974519014 16 0.0875960066914558 0.292039513587952 -0.0441692881286144 0.308076411485672
-0.0182500004395843 0.0460499966666102 0.00564999974519014 16 0.0254576560109854 0.295848250389099 0.00908626336604357 0.297080516815186
-0.015450000397861 0.0460499966666102 0.00564999974519014 16 -0.0301053877919912 0.258481681346893 0.0554612874984741 0.266073435544968
-0.0126500003561378 0.0460499966666102 0.00564999974519014 16 -0.0743175745010376 0.192388534545898 0.0945006459951401 0.226862996816635
-0.0098500003144145 0.0460499966666102 0.00564999974519014 16 -0.103475980460644 0.117288909852505 0.121679052710533 0.198165997862816
-0.00705000027269125 0.0460499966666102 0.00564999974519014 16 -0.121501937508583 0.0436762981116772 0.140683263540268 0.190950572490692
-0.004250000230968 0.0460499966666102 0.00564999974519014 16 -0.129051700234413 -0.022607184946537 0.147614806890488 0.197371616959572
-0.00145000018924474 0.0460499966666102 0.00564999974519014 16 -0.128016501665115 -0.0835709199309349 0.1429073959589 0.209272190928459
0.0013499998524785 0.0460499966666102 0.00564999974519014 16 -0.114639274775982 -0.141079157590866 0.122346356511116 0.219121247529984
0.00414999989420176 0.0460499966666102 0.00564999974519014 16 -0.0865898728370667 -0.197441339492798 0.0850277617573738 0.231755495071411
0.006949999935925 0.0460499966666102 0.00564999974519014 16 -0.0416986048221588 -0.247687622904778 0.0283703189343214 0.252770245075226
0.00974999997764826 0.0460499966666102 0.00564999974519014 16 0.0168408621102571 -0.282032459974289 -0.0475791580975056 0.2865130007267
0.0125500000193715 0.0460499966666102 0.00564999974519014 16 0.0814734548330307 -0.283139258623123 -0.133526936173439 0.323473662137985
0.0153500000610948 0.0460499966666102 0.00564999974519014 16 0.14267872273922 -0.239603102207184 -0.215090841054916 0.352180242538452
0.018150000102818 0.0460499966666102 0.00564999974519014 16 0.187444522976875 -0.149511873722076 -0.271399825811386 0.362142384052277
0.0209500001445413 0.0460499966666102 0.00564999974519014 16 0.206364259123802 -0.026653166860342 -0.288911372423172 0.356042683124542
0.0237500001862645 0.0460499966666102 0.00564999974519014 16 0.190319076180458 0.103851206600666 -0.261358857154846 0.339580446481705
0.0265500002279878 0.0460499966666102 0.00564999974519014 16 0.141247808933258 0.215310364961624 -0.194617941975594 0.322778016328812
0.029350000269711 0.0460499966666102 0.00564999974519014 16 0.0722446888685226 0.289345026016235 -0.10940171033144 0.317661106586456
0.0321500003114343 0.0460499966666102 0.00564999974519014 16 0.00879258848726749 0.32607689499855 -0.034063708037138 0.327969193458557
0.0349500003531575 0.0460499966666102 0.00564999974519014 16 -0.0214793495833874 0.336843490600586 0.000674660434015095 0.33752828836441
-0.0350500006899238 0.043249996624887 0.00564999974519014 16 0.151531413197517 -0.0708054974675179 -0.150706321001053 0.225139021873474
-0.0322500006482005 0.043249996624887 0.00564999974519014 16 0.158983901143074 -0.0361106172204018 -0.152004167437553 0.222901597619057
-0.0294500006064773 0.043249996624887 0.00564999974519014 16 0.168042227625847 0.0352717451751232 -0.148962303996086 0.227314889431
-0.026650000564754 0.043249996624887 0.00564999974519014 16 0.163273677229881 0.118569947779179 -0.132834181189537 0.241582378745079
-0.0238500005230308 0.043249996624887 0.00564999974519014 16 0.13612499833107 0.185812667012215 -0.0991073101758957 0.250756114721298
-0.0210500004813075 0.043249996624887 0.00564999974519014 16 0.0905341058969498 0.22497995197773 -0.052943617105484 0.248224556446075
-0.0182500004395843 0.043249996624887 0.00564999974519014 16 0.0352434813976288 0.228163227438927 0.000284969224594533 0.230869323015213
-0.015450000397861 0.043249996624887 0.00564999974519014 16 -0.017212713137269 0.201834455132484 0.0493451133370399 0.208490684628487
-0.0126500003561378 0.043249996624887 0.00564999974519014 16 -0.0611033029854298 0.152719303965569 0.0923673883080482 0.188649237155914
-0.0098500003144145 0.043249996624887 0.00564999974519014 16 -0.0910175368189812 0.0942782908678055 0.122226029634476 0.179197624325752
-0.00705000027269125 0.043249996624887 0.00564999974519014 16 -0.109021306037903 0.0336643904447556 0.141386643052101 0.181684121489525
-0.004250000230968 0.043249996624887 0.00564999974519014 16 -0.115124218165874 -0.0234222039580345 0.145085483789444 0.186686858534813
-0.00145000018924474 0.043249996624887 0.00564999974519014 16 -0.111955508589745 -0.076391413807869 0.135720938444138 0.191806823015213
0.0013499998524785 0.043249996624887 0.00564999974519014 16 -0.0969506278634071 -0.123784080147743 0.110501445829868 0.192178279161453
0.00414999989420176 0.043249996624887 0.00564999974519014 16 -0.0697603970766068 -0.16539067029953 0.0703223124146461 0.192784368991852
0.006949999935925 0.043249996624887 0.00564999974519014 16 -0.0279027223587036 -0.197765469551086 0.0128202550113201 0.200135216116905
0.00974999997764826 0.043249996624887 0.00564999974519014 16 0.0250724721699953 -0.216294795274734 -0.0608947165310383 0.226097837090492
0.0125500000193715 0.043249996624887 0.00564999974519014 16 0.0835537016391754 -0.211725562810898 -0.141781091690063 0.268161922693253
0.0153500000610948 0.043249996624887 0.00564999974519014 16 0.138261780142784 -0.178269594907761 -0.217371910810471 0.313284069299698
0.018150000102818 0.043249996624887 0.00564999974519014 16 0.178571030497551 -0.114563390612602 -0.27029424905777 0.343615144491196
0.0209500001445413 0.043249996624887 0.00564999974519014 16 0.195491120219231 -0.0295233260840178 -0.289669066667557 0.350708663463593
0.0237500001862645 0.043249996624887 0.00564999974519014 16 0.180896297097206 0.0619912147521973 -0.267924904823303 0.329165816307068
0.0265500002279878 0.043249996624887 0.00564999974519014 16 0.135820910334587 0.142991125583649 -0.207809254527092 0.286493420600891
0.029350000269711 0.043249996624887 0.00564999974519014 16 0.0717036053538322 0.201083213090897 -0.126888915896416 0.248347863554955
0.0321500003114343 0.043249996624887 0.00564999974519014 16 0.0124565856531262 0.233865812420845 -0.0527452938258648 0.240063428878784
0.0349500003531575 0.043249996624887 0.00564999974519014 16 -0.0161041207611561 0.245294407010078 -0.017885398119688 0.246472269296646
-0.0350500006899238 0.0404499965831637 0.00564999974519014 16 0.0962029024958611 -0.028315294533968 -0.111938193440437 0.150289431214333
-0.0322500006482005 0.0404499965831637 0.00564999974519014 16 0.102321729063988 -0.0044188778847456 -0.111585646867752 0.151461616158485
-0.0294500006064773 0.0404499965831637 0.00564999974519014 16 0.111503757536411 0.0444057397544384 -0.108396120369434 0.161724075675011
-0.026650000564754 0.0404499965831637 0.00564999974519014 16 0.112358555197716 0.100920468568802 -0.0964914485812187 0.179220497608185
-0.0238500005230308 0.0404499965831637 0.00564999974519014 16 0.0975978672504425 0.145907819271088 -0.073227159678936 0.190201610326767
-0.0210500004813075 0.0404499965831637 0.00564999974519014 16 0.0689551904797554 0.171762004494667 -0.0405513234436512 0.189476683735847
-0.0182500004395843 0.0404499965831637 0.00564999974519014 16 0.03108811378479 0.17289263010025 -0.000793637416791171 0.175667196512222
-0.015450000397861 0.0404499965831637 0.00564999974519014 16 -0.00679414812475443 0.152960062026978 0.0384329371154308 0.157860800623894
-0.0126500003561378 0.0404499965831637 0.00564999974519014 16 -0.0397951565682888 0.115709625184536 0.074863463640213 0.143446534872055
-0.0098500003144145 0.0404499965831637 0.00564999974519014 16 -0.0621589161455631 0.0698351934552193 0.0998489856719971 0.136786341667175
-0.00705000027269125 0.0404499965831637 0.00564999974519014 16 -0.0747835785150528 0.0210067257285118 0.114193610846996 0.138108819723129
-0.004250000230968 0.0404499965831637 0.00564999974519014 16 -0.0771317705512047 -0.0261075515300035 0.112850524485111 0.139162331819534
-0.00145000018924474 0.0404499965831637 0.00564999974519014 16 -0.0720644444227219 -0.0693268328905106 0.100105069577694 0.141493886709213
0.0013499998524785 0.0404499965831637 0.00564999974519014 16 -0.0578099675476551 -0.106484286487103 0.0739165470004082 0.141931504011154
0.00414999989420176 0.0404499965831637 0.00564999974519014 16 -0.0359435379505157 -0.136106923222542 0.0375867895781994 0.145704492926598
0.006949999935925 0.0404499965831637 0.00564999974519014 16 -0.00431727897375822 -0.156281590461731 -0.0111618181690574 0.15673916041851
0.00974999997764826 0.0404499965831637 0.00564999974519014 16 0.0337916351854801 -0.165263816714287 -0.069642461836338 0.182494044303894
0.0125500000193715 0.0404499965831637 0.00564999974519014 16 0.0760823786258698 -0.15861913561821 -0.13184829056263 0.219846606254578
0.0153500000610948 0.0404499965831637 0.00564999974519014 16 0.115154519677162 -0.134215071797371 -0.18830569088459 0.25832787156105
0.018150000102818 0.0404499965831637 0.00564999974519014 16 0.143908604979515 -0.0908066406846046 -0.227845013141632 0.284374564886093
0.0209500001445413 0.0404499965831637 0.00564999974519014 16 0.155143469572067 -0.034218929708004 -0.243312239646912 0.290587812662125
0.0237500001862645 0.0404499965831637 0.00564999974519014 16 0.143399566411972 0.02811567671597 -0.229112029075623 0.271746665239334
0.0265500002279878 0.0404499965831637 0.00564999974519014 16 0.108946807682514 0.0854123681783676 -0.184544280171394 0.230697363615036
0.029350000269711 0.0404499965831637 0.00564999974519014 16 0.0597863234579563 0.12974987924099 -0.122404552996159 0.188128441572189
0.0321500003114343 0.0404499965831637 0.00564999974519014 16 0.0139013407751918 0.157306849956512 -0.0632694810628891 0.170122668147087
0.0349500003531575 0.0404499965831637 0.00564999974519014 16 -0.00841627363115549 0.16783119738102 -0.0356977768242359 0.171791955828667
-0.0350500006899238 0.0376499965414405 0.00564999974519014 16 0.0473996177315712 -0.0037615685723722 -0.0700336918234825 0.0846498161554337
-0.0322500006482005 0.0376499965414405 0.00564999974519014 16 0.0511812195181847 0.0142971938475966 -0.0682131946086884 0.0864694565534592
-0.0294500006064773 0.0376499965414405 0.00564999974519014 16 0.057597640901804 0.0506516695022583 -0.0641572549939156 0.0999961644411087
-0.026650000564754 0.0376499965414405 0.00564999974519014 16 0.0598387680947781 0.0915390849113464 -0.0552902445197105 0.122544251382351
-0.0238500005230308 0.0376499965414405 0.00564999974519014 16 0.0528827719390392 0.122667111456394 -0.0412152223289013 0.139794513583183
-0.0210500004813075 0.0376499965414405 0.00564999974519014 16 0.0373163893818855 0.139100939035416 -0.0209455005824566 0.145534530282021
-0.0182500004395843 0.0376499965414405 0.00564999974519014 16 0.0150120230391622 0.137151628732681 0.00480025494471192 0.138054236769676
-0.015450000397861 0.0376499965414405 0.00564999974519014 16 -0.00780784152448177 0.119317017495632 0.0317292660474777 0.123710386455059
-0.0126500003561378 0.0376499965414405 0.00564999974519014 16 -0.0276875142008066 0.0880454704165459 0.0569395571947098 0.108446843922138
-0.0098500003144145 0.0376499965414405 0.00564999974519014 16 -0.0397675558924675 0.0497271083295345 0.0727722719311714 0.0966956466436386
-0.00705000027269125 0.0376499965414405 0.00564999974519014 16 -0.0445978082716465 0.0095992311835289 0.0794314742088318 0.0915995016694069