TITLE="DynamicStudio Exported Data"
VARIABLES= "X (m)[m]" "Y (m)[m]" "Z (m)[m]" "Status[-]" "U[-]" "V[-]" "W[-]" "Length[-]"
ZONE T="DynamicStudio Data" F=POINT
-0.0350500006899238 0.0600499968752265 0.00564999974519014 16 0.121629908680916 -0.25043186545372 -0.218226283788681 0.353740960359573
-0.0322500006482005 0.0600499968752265 0.00564999974519014 16 0.0869110822677612 -0.271884948015213 -0.17993201315403 0.337417393922806
-0.0294500006064773 0.0600499968752265 0.00564999974519014 16 0.0129020139575005 -0.307638019323349 -0.098818875849247 0.323377162218094
-0.026650000564754 0.0600499968752265 0.00564999974519014 16 -0.0848294422030449 -0.313718199729919 0.0201876256614923 0.325611233711243
-0.0238500005230308 0.0600499968752265 0.00564999974519014 16 -0.17435060441494 -0.266928672790527 0.135265231132507 0.346331804990768
-0.0210500004813075 0.0600499968752265 0.00564999974519014 16 -0.244338020682335 -0.160712152719498 0.238440945744514 0.377337455749512
-0.0182500004395843 0.0600499968752265 0.00564999974519014 16 -0.27660146355629 -0.0158339664340019 0.293767303228378 0.403804779052734
-0.015450000397861 0.0600499968752265 0.00564999974519014 16 -0.270001769065857 0.140861481428146 0.307738602161407 0.43295031785965
-0.0126500003561378 0.0600499968752265 0.00564999974519014 16 -0.222772881388664 0.271269917488098 0.268824011087418 0.442132860422134
-0.0098500003144145 0.0600499968752265 0.00564999974519014 16 -0.148276001214981 0.347469985485077 0.204668000340462 0.429662853479385
-0.00705000027269125 0.0600499968752265 0.00564999974519014 16 -0.0638357773423195 0.354629039764404 0.125937461853027 0.381702780723572
-0.004250000230968 0.0600499968752265 0.00564999974519014 16 0.0160353966057301 0.306787759065628 0.0516411699354649 0.311516731977463
-0.00145000018924474 0.0600499968752265 0.00564999974519014 16 0.0820090025663376 0.224905326962471 -0.0160395000129938 0.239927381277084
0.0013499998524785 0.0600499968752265 0.00564999974519014 16 0.132639601826668 0.136964708566666 -0.0792671889066696 0.206484586000443
0.00414999989420176 0.0600499968752265 0.00564999974519014 16 0.166883513331413 0.0550260096788406 -0.131880894303322 0.219705566763878
0.006949999935925 0.0600499968752265 0.00564999974519014 16 0.188487470149994 -0.0161358565092087 -0.181778877973557 0.262357473373413
0.00974999997764826 0.0600499968752265 0.00564999974519014 16 0.198826372623444 -0.0807841792702675 -0.221386820077896 0.308334469795227
0.0125500000193715 0.0600499968752265 0.00564999974519014 16 0.197200104594231 -0.151762679219246 -0.254979223012924 0.356278270483017
0.0153500000610948 0.0600499968752265 0.00564999974519014 16 0.176356837153435 -0.228541702032089 -0.265227079391479 0.392018437385559
0.018150000102818 0.0600499968752265 0.00564999974519014 16 0.126015707850456 -0.307104229927063 -0.236528113484383 0.407600939273834
0.0209500001445413 0.0600499968752265 0.00564999974519014 16 0.0449951961636543 -0.356852829456329 -0.164367869496346 0.395455807447433
0.0237500001862645 0.0600499968752265 0.00564999974519014 16 -0.0610600411891937 -0.356673896312714 -0.0502545572817326 0.365335613489151
0.0265500002279878 0.0600499968752265 0.00564999974519014 16 -0.166745126247406 -0.292618542909622 0.0699024200439453 0.343970775604248
0.029350000269711 0.0600499968752265 0.00564999974519014 16 -0.255399286746979 -0.187823787331581 0.176343679428101 0.362772196531296
0.0321500003114343 0.0600499968752265 0.00564999974519014 16 -0.30810472369194 -0.0841401368379593 0.241784974932671 0.400584638118744
0.0349500003531575 0.0600499968752265 0.00564999974519014 16 -0.328064501285553 -0.0345607064664364 0.26557195186615 0.423496425151825
-0.0350500006899238 0.0572499968335032 0.00564999974519014 16 0.106472305953503 -0.2681944668293 -0.209619089961052 0.356657773256302
-0.0322500006482005 0.0572499968335032 0.00564999974519014 16 0.0763992369174957 -0.292821496725082 -0.175415322184563 0.349788218736649
-0.0294500006064773 0.0572499968335032 0.00564999974519014 16 0.013827858492732 -0.333279997110367 -0.10473195463419 0.349622011184692
-0.026650000564754 0.0572499968335032 0.00564999974519014 16 -0.0674969479441643 -0.342442482709885 -0.000180747651029378 0.349031120538712
-0.0238500005230308 0.0572499968335032 0.00564999974519014 16 -0.141135722398758 -0.293107688426971 0.102096728980541 0.340962082147598
-0.0210500004813075 0.0572499968335032 0.00564999974519014 16 -0.19954526424408 -0.17775197327137 0.196776270866394 0.331865906715393
-0.0182500004395843 0.0572499968335032 0.00564999974519014 16 -0.229234591126442 -0.0201229490339756 0.252790778875351 0.341842949390411
-0.015450000397861 0.0572499968335032 0.00564999974519014 16 -0.228290602564812 0.150668039917946 0.273794949054718 0.387015670537949
-0.0126500003561378 0.0572499968335032 0.00564999974519014 16 -0.193931296467781 0.291718393564224 0.248796314001083 0.429661005735397
-0.0098500003144145 0.0572499968335032 0.00564999974519014 16 -0.135005205869675 0.374289631843567 0.197696045041084 0.444300413131714
-0.00705000027269125 0.0572499968335032 0.00564999974519014 16 -0.0659022629261017 0.381460845470428 0.131397813558578 0.408804178237915
-0.004250000230968 0.0572499968335032 0.00564999974519014 16 0.00173835223540664 0.327823519706726 0.064352810382843 0.334084689617157
-0.00145000018924474 0.0572499968335032 0.00564999974519014 16 0.0590846538543701 0.237696349620819 0.00198315875604749 0.244937717914581
0.0013499998524785 0.0572499968335032 0.00564999974519014 16 0.104634113609791 0.141340553760529 -0.0577593110501766 0.185098856687546
0.00414999989420176 0.0572499968335032 0.00564999974519014 16 0.13566879928112 0.0548548959195614 -0.106668323278427 0.181088969111443
0.006949999935925 0.0572499968335032 0.00564999974519014 16 0.155519261956215 -0.0182525403797626 -0.151732206344604 0.21804141998291
0.00974999997764826 0.0572499968335032 0.00564999974519014 16 0.16406711935997 -0.0838288143277168 -0.185786351561546 0.261652171611786
0.0125500000193715 0.0572499968335032 0.00564999974519014 16 0.16298009455204 -0.157329097390175 -0.215038418769836 0.312340319156647
0.0153500000610948 0.0572499968335032 0.00564999974519014 16 0.145384877920151 -0.240346282720566 -0.227196931838989 0.361277669668198
0.018150000102818 0.0572499968335032 0.00564999974519014 16 0.10535641014576 -0.326493978500366 -0.209174752235413 0.401811361312866
0.0209500001445413 0.0572499968335032 0.00564999974519014 16 0.0395956076681614 -0.383022636175156 -0.155532866716385 0.415288597345352
0.0237500001862645 0.0572499968335032 0.00564999974519014 16 -0.0464513003826141 -0.384379655122757 -0.0648223385214806 0.392565131187439
0.0265500002279878 0.0572499968335032 0.00564999974519014 16 -0.133851781487465 -0.316064834594727 0.0335333906114101 0.344873547554016
0.029350000269711 0.0572499968335032 0.00564999974519014 16 -0.207579642534256 -0.203373968601227 0.121893092989922 0.315132021903992
0.0321500003114343 0.0572499968335032 0.00564999974519014 16 -0.252424895763397 -0.0916216298937798 0.176995545625687 0.3216213285923
0.0349500003531575 0.0572499968335032 0.00564999974519014 16 -0.2696253657341 -0.0377360843122005 0.19798418879509 0.336629748344421
-0.0350500006899238 0.05444999679178 0.00564999974519014 16 0.061575073748827 -0.295492559671402 -0.168887451291084 0.345876157283783
-0.0322500006482005 0.05444999679178 0.00564999974519014 16 0.0446934923529625 -0.325013637542725 -0.148087069392204 0.359946042299271
-0.0294500006064773 0.05444999679178 0.00564999974519014 16 0.0117151215672493 -0.372230887413025 -0.105798721313477 0.387151718139648
-0.026650000564754 0.05444999679178 0.00564999974519014 16 -0.0301421154290438 -0.384118169546127 -0.0374774523079395 0.387117385864258
-0.0238500005230308 0.05444999679178 0.00564999974519014 16 -0.0651863664388657 -0.329178899526596 0.0297471396625042 0.336887061595917
-0.0210500004813075 0.05444999679178 0.00564999974519014 16 -0.0954935997724533 -0.199493378400803 0.100396901369095 0.242891266942024
-0.0182500004395843 0.05444999679178 0.00564999974519014 16 -0.115714929997921 -0.024138743057847 0.151782542467117 0.192381307482719
-0.015450000397861 0.05444999679178 0.00564999974519014 16 -0.126040890812874 0.164882943034172 0.187748610973358 0.279861092567444
-0.0126500003561378 0.05444999679178 0.00564999974519014 16 -0.120450921356678 0.319248110055923 0.192462578415871 0.391752004623413
-0.0098500003144145 0.05444999679178 0.00564999974519014 16 -0.0994141101837158 0.410665094852448 0.17417985200882 0.457020342350006
-0.00705000027269125 0.05444999679178 0.00564999974519014 16 -0.0677431002259254 0.419753193855286 0.138407379388809 0.44714480638504
-0.004250000230968 0.05444999679178 0.00564999974519014 16 -0.0304060094058514 0.360622406005859 0.0942437723278999 0.373971819877625
-0.00145000018924474 0.05444999679178 0.00564999974519014 16 0.00545752933248878 0.259752750396729 0.0494073815643787 0.264466196298599
0.0013499998524785 0.05444999679178 0.00564999974519014 16 0.0375123582780361 0.150210306048393 0.00195722747594118 0.154835864901543
0.00414999989420176 0.05444999679178 0.00564999974519014 16 0.0604151263833046 0.0547935515642166 -0.037065926939249 0.0895890817046165
0.006949999935925 0.05444999679178 0.00564999974519014 16 0.07710912078619 -0.0229882411658764 -0.0734666436910629 0.108956977725029
0.00974999997764826 0.05444999679178 0.00564999974519014 16 0.0840616524219513 -0.0906346142292023 -0.0998867452144623 0.158928781747818
0.0125500000193715 0.05444999679178 0.00564999974519014 16 0.0856558009982109 -0.167443960905075 -0.124407202005386 0.225502878427505
0.0153500000610948 0.05444999679178 0.00564999974519014 16 0.0754893347620964 -0.258180171251297 -0.14094503223896 0.303679347038269
0.018150000102818 0.05444999679178 0.00564999974519014 16 0.0560085475444794 -0.353863269090652 -0.143385604023933 0.385895848274231
0.0209500001445413 0.05444999679178 0.00564999974519014 16 0.0231620315462351 -0.419999659061432 -0.129454419016838 0.440107524394989
0.0237500001862645 0.05444999679178 0.00564999974519014 16 -0.018295805901289 -0.425392597913742 -0.0921503975987434 0.435643553733826
0.0265500002279878 0.05444999679178 0.00564999974519014 16 -0.0618759319186211 -0.353827655315399 -0.0480369105935097 0.362395077943802
0.029350000269711 0.05444999679178 0.00564999974519014 16 -0.0994927883148193 -0.232629716396332 -0.00369246723130345 0.253039598464966
0.0321500003114343 0.05444999679178 0.00564999974519014 16 -0.123222418129444 -0.110367186367512 0.0244828797876835 0.167224675416946
0.0349500003531575 0.05444999679178 0.00564999974519014 16 -0.132473334670067 -0.0521572418510914 0.0350901298224926 0.14663177728653
-0.0350500006899238 0.0516499967500567 0.00564999974519014 16 0.000230125937378034 -0.313303142786026 -0.115185394883156 0.333806216716766
-0.0322500006482005 0.0516499967500567 0.00564999974519014 16 -0.000596137018874288 -0.341021180152893 -0.108570069074631 0.357887208461761
-0.0294500006064773 0.0516499967500567 0.00564999974519014 16 0.00303255091421306 -0.384680092334747 -0.0990385562181473 0.397236198186874
-0.026650000564754 0.0516499967500567 0.00564999974519014 16 0.00972907617688179 -0.392887234687805 -0.0747663304209709 0.400056302547455
-0.0238500005230308 0.0516499967500567 0.00564999974519014 16 0.0215163677930832 -0.333668082952499 -0.0503895878791809 0.3381367623806
-0.0210500004813075 0.0516499967500567 0.00564999974519014 16 0.0260428246110678 -0.199990466237068 -0.0123059479519725 0.202054083347321
-0.0182500004395843 0.0516499967500567 0.00564999974519014 16 0.0208095051348209 -0.0221220925450325 0.0253726691007614 0.0395751819014549
-0.015450000397861 0.0516499967500567 0.00564999974519014 16 0.00172844727057964 0.167304918169975 0.0716614872217178 0.182014524936676
-0.0126500003561378 0.0516499967500567 0.00564999974519014 16 -0.0217056684195995 0.32165053486824 0.106715880334377 0.33958575129509
-0.0098500003144145 0.0516499967500567 0.00564999974519014 16 -0.0429616793990135 0.414688974618912 0.129070892930031 0.436430901288986
-0.00705000027269125 0.0516499967500567 0.00564999974519014 16 -0.055423554033041 0.426703363656998 0.132824271917343 0.450321912765503
-0.004250000230968 0.0516499967500567 0.00564999974519014 16 -0.0570343844592571 0.368158429861069 0.122136808931828 0.392059892416
-0.00145000018924474 0.0516499967500567 0.00564999974519014 16 -0.0514243394136429 0.264985412359238 0.10517892241478 0.289696991443634
0.0013499998524785 0.0516499967500567 0.00564999974519014 16 -0.040751539170742 0.150408983230591 0.0816689282655716 0.175935685634613
0.00414999989420176 0.0516499967500567 0.00564999974519014 16 -0.0317527912557125 0.0511020980775356 0.0618456490337849 0.0862817987799644
0.006949999935925 0.0516499967500567 0.00564999974519014 16 -0.0221333280205727 -0.0289297979325056 0.0409160032868385 0.0547808073461056
0.00974999997764826 0.0516499967500567 0.00564999974519014 16 -0.0181302689015865 -0.0975776314735413 0.0258146319538355 0.102549962699413
0.0125500000193715 0.0516499967500567 0.00564999974519014 16 -0.0137093374505639 -0.173876747488976 0.00732685532420874 0.174570187926292
0.0153500000610948 0.0516499967500567 0.00564999974519014 16 -0.0134781468659639 -0.26462459564209 -0.0162939634174109 0.265468120574951
0.018150000102818 0.0516499967500567 0.00564999974519014 16 -0.00728215277194977 -0.359515219926834 -0.0473258830606937 0.362689912319183
0.0209500001445413 0.0516499967500567 0.00564999974519014 16 0.00142282422166318 -0.427231013774872 -0.084813117980957 0.435570478439331
0.0237500001862645 0.0516499967500567 0.00564999974519014 16 0.0156602822244167 -0.43543416261673 -0.115732230246067 0.450823813676834
0.0265500002279878 0.0516499967500567 0.00564999974519014 16 0.028080552816391 -0.366899162530899 -0.140188634395599 0.393771976232529
0.029350000269711 0.0516499967500567 0.00564999974519014 16 0.0366467572748661 -0.24778239428997 -0.150795206427574 0.292366713285446
0.0321500003114343 0.0516499967500567 0.00564999974519014 16 0.0401379317045212 -0.124862402677536 -0.155300676822662 0.203273147344589
0.0349500003531575 0.0516499967500567 0.00564999974519014 16 0.0403838418424129 -0.0663120374083519 -0.154857516288757 0.173231035470963
-0.0350500006899238 0.0488499967083335 0.00564999974519014 16 -0.0586640276014805 -0.298396676778793 -0.0485179238021374 0.307954609394073
-0.0322500006482005 0.0488499967083335 0.00564999974519014 16 -0.0447522513568401 -0.320100635290146 -0.0559952631592751 0.328028440475464
-0.0294500006064773 0.0488499967083335 0.00564999974519014 16 -0.00969808921217918 -0.351271033287048 -0.0748325958848 0.359284460544586
-0.026650000564754 0.0488499967083335 0.00564999974519014 16 0.0368176251649857 -0.349493801593781 -0.0895176231861115 0.362649768590927
-0.0238500005230308 0.0488499967083335 0.00564999974519014 16 0.0861390307545662 -0.28894630074501 -0.104913718998432 0.319244086742401
-0.0210500004813075 0.0488499967083335 0.00564999974519014 16 0.120087556540966 -0.166959911584854 -0.101676240563393 0.229422509670258
-0.0182500004395843 0.0488499967083335 0.00564999974519014 16 0.130683541297913 -0.010274751111865 -0.0844235196709633 0.155920132994652
-0.015450000397861 0.0488499967083335 0.00564999974519014 16 0.109764441847801 0.152987644076347 -0.0376713313162327 0.19202233850956
-0.0126500003561378 0.0488499967083335 0.00564999974519014 16 0.0672550350427628 0.286513060331345 0.0175214093178511 0.294821947813034
-0.0098500003144145 0.0488499967083335 0.00564999974519014 16 0.0139800868928432 0.369076043367386 0.0740165263414383 0.376684248447418
-0.00705000027269125 0.0488499967083335 0.00564999974519014 16 -0.0347723625600338 0.384400427341461 0.116183586418629 0.40307742357254
-0.004250000230968 0.0488499967083335 0.00564999974519014 16 -0.0707157328724861 0.337210565805435 0.14293409883976 0.373017221689224
-0.00145000018924474 0.0488499967083335 0.00564999974519014 16 -0.0941944196820259 0.247463464736938 0.159562766551971 0.309145629405975
0.0013499998524785 0.0488499967083335 0.00564999974519014 16 -0.10623374581337 0.14249362051487 0.165213346481323 0.242663338780403
0.00414999989420176 0.0488499967083335 0.00564999974519014 16 -0.112589485943317 0.0473839342594147 0.16763910651207 0.207423478364944
0.006949999935925 0.0488499967083335 0.00564999974519014 16 -0.110641285777092 -0.0312945619225502 0.161664426326752 0.198384046554565
0.00974999997764826 0.0488499967083335 0.00564999974519014 16 -0.107138961553574 -0.0987997427582741 0.152665287256241 0.211061209440231
0.0125500000193715 0.0488499967083335 0.00564999974519014 16 -0.0977253690361977 -0.168612107634544 0.132827401161194 0.235846146941185
0.0153500000610948 0.0488499967083335 0.00564999974519014 16 -0.0859239175915718 -0.247170999646187 0.0991233438253403 0.279824703931808
0.018150000102818 0.0488499967083335 0.00564999974519014 16 -0.0588574856519699 -0.326849520206451 0.0436597838997841 0.33496418595314
0.0209500001445413 0.0488499967083335 0.00564999974519014 16 -0.0178689677268267 -0.384399712085724 -0.0341426283121109 0.386326491832733
0.0237500001862645 0.0488499967083335 0.00564999974519014 16 0.0390534251928329 -0.394241988658905 -0.121221721172333 0.414302557706833
0.0265500002279878 0.0488499967083335 0.00564999974519014 16 0.0960190370678902 -0.338877141475677 -0.20310951769352 0.406584352254868
0.029350000269711 0.0488499967083335 0.00564999974519014 16 0.143290117383003 -0.238447934389114 -0.261372834444046 0.381713569164276
0.0321500003114343 0.0488499967083335 0.00564999974519014 16 0.171423554420471 -0.131064847111702 -0.295292377471924 0.365734338760376
0.0349500003531575 0.0488499967083335 0.00564999974519014 16 0.181015759706497 -0.0793774649500847 -0.305155366659164 0.36357569694519
-0.0350500006899238 0.0460499966666102 0.00564999974519014 16 -0.0883134379982948 -0.261612057685852 -0.00598922744393349 0.276181101799011
-0.0322500006482005 0.0460499966666102 0.00564999974519014 16 -0.0680624693632126 -0.27297306060791 -0.0192472767084837 0.281988024711609
-0.0294500006064773 0.0460499966666102 0.00564999974519014 16 -0.0205222610384226 -0.286391645669937 -0.0507050342857838 0.291568756103516
-0.026650000564754 0.0460499966666102 0.00564999974519014 16 0.0407553538680077 -0.273282319307327 -0.0833939164876938 0.288615256547928
-0.0238500005230308 0.0460499966666102 0.00564999974519014 16 0.102896153926849 -0.217003032565117 -0.117310747504234 0.267282128334045
-0.0210500004813075 0.0460499966666102 0.00564999974519014 16 0.148509532213211 -0.117722280323505 -0.134094029664993 0.232152596116066
-0.0182500004395843 0.0460499966666102 0.00564999974519014 16 0.168301552534103 0.00372421555221081 -0.133805215358734 0.215042129158974
-0.015450000397861 0.0460499966666102 0.00564999974519014 16 0.153260752558708 0.127616852521896 -0.0968472510576248 0.221707701683044
-0.0126500003561378 0.0460499966666102 0.00564999974519014 16 0.109897874295712 0.229740962386131 -0.0380874760448933 0.257505565881729
-0.0098500003144145 0.0460499966666102 0.00564999974519014 16 0.0488879680633545 0.295511364936829 0.0336147844791412 0.301408290863037
-0.00705000027269125 0.0460499966666102 0.00564999974519014 16 -0.0137134417891502 0.311796128749847 0.0984738543629646 0.327264398336411
-0.004250000230968 0.0460499966666102 0.00564999974519014 16 -0.0668369755148888 0.27870237827301 0.149956598877907 0.323464334011078
-0.00145000018924474 0.0460499966666102 0.00564999974519014 16 -0.107838362455368 0.209539175033569 0.191390067338943 0.303588420152664
0.0013499998524785 0.0460499966666102 0.00564999974519014 16 -0.135802313685417 0.124741725623608 0.220603331923485 0.287521481513977
0.00414999989420176 0.0460499966666102 0.00564999974519014 16 -0.153969660401344 0.0433960780501366 0.242943942546844 0.290880799293518
0.006949999935925 0.0460499966666102 0.00564999974519014 16 -0.159868910908699 -0.0270961429923773 0.251535534858704 0.299269765615463
0.00974999997764826 0.0460499966666102 0.00564999974519014 16 -0.158045291900635 -0.0892334878444672 0.249766573309898 0.30874627828598
0.0125500000193715 0.0460499966666102 0.00564999974519014 16 -0.145024552941322 -0.149167612195015 0.22858239710331 0.30908414721489
0.0153500000610948 0.0460499966666102 0.00564999974519014 16 -0.123273842036724 -0.210029140114784 0.185750782489777 0.306287497282028
0.018150000102818 0.0460499966666102 0.00564999974519014 16 -0.0823688432574272 -0.267980545759201 0.112081818282604 0.301928043365479
0.0209500001445413 0.0460499966666102 0.00564999974519014 16 -0.0243962667882442 -0.308020323514938 0.0120757725089788 0.309220820665359
0.0237500001862645 0.0460499966666102 0.00564999974519014 16 0.0513779781758785 -0.316160082817078 -0.103361494839191 0.336571663618088
0.0265500002279878 0.0460499966666102 0.00564999974519014 16 0.127053931355476 -0.276619791984558 -0.212487280368805 0.371230453252792
0.029350000269711 0.0460499966666102 0.00564999974519014 16 0.191402465105057 -0.20363113284111 -0.294996470212936 0.406353861093521
0.0321500003114343 0.0460499966666102 0.00564999974519014 16 0.23079951107502 -0.122980125248432 -0.34406915307045 0.432175993919373
0.0349500003531575 0.0460499966666102 0.00564999974519014 16 0.245734259486198 -0.0836135968565941 -0.359726369380951 0.443598479032516
-0.0350500006899238 0.043249996624887 0.00564999974519014 16 -0.0865431278944016 -0.212950453162193 0.0171889159828424 0.230506122112274
-0.0322500006482005 0.043249996624887 0.00564999974519014 16 -0.0674915388226509 -0.216776803135872 0.00363517482765019 0.22706937789917
-0.0294500006064773 0.043249996624887 0.00564999974519014 16 -0.0248960256576538 -0.21720652282238 -0.0274922866374254 0.220350429415703
-0.026650000564754 0.043249996624887 0.00564999974519014 16 0.0285783838480711 -0.196783900260925 -0.0613511428236961 0.208097562193871
-0.0238500005230308 0.043249996624887 0.00564999974519014 16 0.0813489928841591 -0.147728979587555 -0.0975445955991745 0.194824174046516
-0.0210500004813075 0.043249996624887 0.00564999974519014 16 0.121810257434845 -0.0715499445796013 -0.120566301047802 0.185723885893822
-0.0182500004395843 0.043249996624887 0.00564999974519014 16 0.142063453793526 0.0160889532417059 -0.128371939063072 0.192146390676498
-0.015450000397861 0.043249996624887 0.00564999974519014 16 0.134908273816109 0.10443526506424 -0.10310547798872 0.19934318959713
-0.0126500003561378 0.043249996624887 0.00564999974519014 16 0.102119415998459 0.177472800016403 -0.0523884147405624 0.211351647973061
-0.0098500003144145 0.043249996624887 0.00564999974519014 16 0.0512733347713947 0.226648986339569 0.0163941197097301 0.232953831553459
-0.00705000027269125 0.043249996624887 0.00564999974519014 16 -0.00547852739691734 0.241309389472008 0.0868412777781487 0.256518304347992
-0.004250000230968 0.043249996624887 0.00564999974519014 16 -0.0582204572856426 0.220514953136444 0.148451045155525 0.272128969430923
-0.00145000018924474 0.043249996624887 0.00564999974519014 16 -0.101923741400242 0.171682998538017 0.200835913419724 0.283193498849869
0.0013499998524785 0.043249996624887 0.00564999974519014 16 -0.13472606241703 0.108556918799877 0.240369960665703 0.2961645424366
0.00414999989420176 0.043249996624887 0.00564999974519014 16 -0.156596645712852 0.0433779023587704 0.271829068660736 0.316694170236588
0.006949999935925 0.043249996624887 0.00564999974519014 16 -0.165697515010834 -0.0165138188749552 0.287848889827728 0.332543760538101
0.00974999997764826 0.043249996624887 0.00564999974519014 16 -0.163726732134819 -0.0710934698581696 0.289254754781723 0.339895635843277
0.0125500000193715 0.043249996624887 0.00564999974519014 16 -0.147337436676025 -0.120528854429722 0.26452511548996 0.325897306203842
0.0153500000610948 0.043249996624887 0.00564999974519014 16 -0.118985839188099 -0.165334314107895 0.216056436300278 0.29694014787674
0.018150000102818 0.043249996624887 0.00564999974519014 16 -0.0733328312635422 -0.204490408301353 0.137166142463684 0.256921350955963
0.0209500001445413 0.043249996624887 0.00564999974519014 16 -0.0159542411565781 -0.229053065180779 0.0387656725943089 0.232857525348663
0.0237500001862645 0.043249996624887 0.00564999974519014 16 0.0531713962554932 -0.234687969088554 -0.0728113204240799 0.251410275697708
0.0265500002279878 0.043249996624887 0.00564999974519014 16 0.120287530124187 -0.209052041172981 -0.177266404032707 0.299324631690979
0.029350000269711 0.043249996624887 0.00564999974519014 16 0.179176911711693 -0.162353113293648 -0.259244740009308 0.35450068116188
0.0321500003114343 0.043249996624887 0.00564999974519014 16 0.21688486635685 -0.108761824667454 -0.310162335634232 0.393787831068039
0.0349500003531575 0.043249996624887 0.00564999974519014 16 0.232711642980576 -0.0823914632201195 -0.328149169683456 0.410639673471451
-0.0350500006899238 0.0404499965831637 0.00564999974519014 16 -0.0649437978863716 -0.171652480959892 0.0234704576432705 0.185021981596947
-0.0322500006482005 0.0404499965831637 0.00564999974519014 16 -0.0509673543274403 -0.17043399810791 0.011404350399971 0.178256779909134
-0.0294500006064773 0.0404499965831637 0.00564999974519014 16 -0.0215218365192413 -0.16337987780571 -0.0153804309666157 0.16550749540329
-0.026650000564754 0.0404499965831637 0.00564999974519014 16 0.0139811802655458 -0.140565916895866 -0.0425014495849609 0.147514820098877
-0.0238500005230308 0.0404499965831637 0.00564999974519014 16 0.0471058748662472 -0.0995360538363457 -0.0692571997642517 0.130088239908218
-0.0210500004813075 0.0404499965831637 0.00564999974519014 16 0.0726880431175232 -0.0411979705095291 -0.0849189311265945 0.11913038790226
-0.0182500004395843 0.0404499965831637 0.00564999974519014 16 0.0861099511384964 0.0229909811168909 -0.0900421366095543 0.126692920923233
-0.015450000397861 0.0404499965831637 0.00564999974519014 16 0.0837405771017075 0.0877451226115227 -0.0722617283463478 0.141185864806175
-0.0126500003561378 0.0404499965831637 0.00564999974519014 16 0.0642821565270424 0.141804620623589 -0.0336854383349419 0.159296751022339
-0.0098500003144145 0.0404499965831637 0.00564999974519014 16 0.0304167345166206 0.179715350270271 0.0212555192410946 0.183506354689598
-0.00705000027269125 0.0404499965831637 0.00564999974519014 16 -0.0111938025802374 0.191799372434616 0.0826865062117577 0.209163472056389
-0.004250000230968 0.0404499965831637 0.00564999974519014 16 -0.0538711585104465 0.177204191684723 0.139591366052628 0.231924936175346
-0.00145000018924474 0.0404499965831637 0.00564999974519014 16 -0.0906758904457092 0.141008302569389 0.189639165997505 0.253117501735687
0.0013499998524785 0.0404499965831637 0.00564999974519014 16 -0.11917445063591 0.094101570546627 0.228450894355774 0.274312704801559
0.00414999989420176 0.0404499965831637 0.00564999974519014 16 -0.137592807412148 0.0438555181026459 0.260064095258713 0.297470033168793
0.006949999935925 0.0404499965831637 0.00564999974519014 16 -0.14537388086319 -0.00410843966528773 0.278647899627686 0.314316868782043
0.00974999997764826 0.0404499965831637 0.00564999974519014 16 -0.142799377441406 -0.0499706380069256 0.283548355102539 0.321385115385056
0.0125500000193715 0.0404499965831637 0.00564999974519014 16 -0.125593408942223 -0.0910996422171593 0.260607689619064 0.303297251462936
0.0153500000610948 0.0404499965831637 0.00564999974519014 16 -0.095603846013546 -0.126586049795151 0.213764324784279 0.266194134950638
0.018150000102818 0.0404499965831637 0.00564999974519014 16 -0.051367249339819 -0.154884174466133 0.139602646231651 0.214747756719589
0.0209500001445413 0.0404499965831637 0.00564999974519014 16 -0.00176162517163903 -0.170200437307358 0.0541454777121544 0.178614184260368
0.0237500001862645 0.0404499965831637 0.00564999974519014 16 0.0516514033079147 -0.172596797347069 -0.0375060997903347 0.18402236700058
0.0265500002279878 0.0404499965831637 0.00564999974519014 16 0.100287869572639 -0.154885277152061 -0.121752992272377 0.221067622303963
0.029350000269711 0.0404499965831637 0.00564999974519014 16 0.143226534128189 -0.125795483589172 -0.189261853694916 0.268623143434525
0.0321500003114343 0.0404499965831637 0.00564999974519014 16 0.171396285295486 -0.092849500477314 -0.233675256371498 0.304305493831635
0.0349500003531575 0.0404499965831637 0.00564999974519014 16 0.184231340885162 -0.0770908370614052 -0.250295877456665 0.320206522941589
-0.0350500006899238 0.0376499965414405 0.00564999974519014 16 -0.0377217121422291 -0.139218464493752 0.0235370472073555 0.146146148443222
-0.0322500006482005 0.0376499965414405 0.00564999974519014 16 -0.0283607505261898 -0.135755717754364 0.0138302138075233 0.139374390244484
-0.0294500006064773 0.0376499965414405 0.00564999974519014 16 -0.00980534311383963 -0.125632539391518 -0.00856450386345387 0.126305311918259
-0.026650000564754 0.0376499965414405 0.00564999974519014 16 0.0102996444329619 -0.103460416197777 -0.029547430574894 0.108088806271553
-0.0238500005230308 0.0376499965414405 0.00564999974519014 16 0.0263349488377571 -0.0690202340483665 -0.0477746389806271 0.0879757851362228
-0.0210500004813075 0.0376499965414405 0.00564999974519014 16 0.0371766239404678 -0.0225281789898872 -0.0548403970897198 0.0699792057275772
-0.0182500004395843 0.0376499965414405 0.00564999974519014 16 0.0417028851807117 0.0283674225211143 -0.0539241619408131 0.0738353356719017
-0.015450000397861 0.0376499965414405 0.00564999974519014 16 0.0388045161962509 0.0797768086194992 -0.0388124361634254 0.0968325063586235
-0.0126500003561378 0.0376499965414405 0.00564999974519014 16 0.0266697779297829 0.12300568073988 -0.0103648193180561 0.126289755105972
-0.0098500003144145 0.0376499965414405 0.00564999974519014 16 0.00499228807166219 0.153016611933708 0.029709430411458 0.155954018235207
-0.00705000027269125 0.0376499965414405 0.00564999974519014 16 -0.0231371689587831 0.16240856051445 0.0777094662189484 0.181523084640503