TITLE="DynamicStudio Exported Data"
VARIABLES= "X (m)[m]" "Y (m)[m]" "Z (m)[m]" "Status[-]" "U[-]" "V[-]" "W[-]" "Length[-]"
ZONE T="DynamicStudio Data" F=POINT
-0.0350500006899238 0.0600499968752265 0.00564999974519014 16 0.274949848651886 0.0635858252644539 -0.357474863529205 0.455443561077118
-0.0322500006482005 0.0600499968752265 0.00564999974519014 16 0.268873959779739 0.0452753342688084 -0.349891901016235 0.443584710359573
-0.0294500006064773 0.0600499968752265 0.00564999974519014 16 0.253967463970184 0.00598969031125307 -0.327191054821014 0.414233446121216
-0.026650000564754 0.0600499968752265 0.00564999974519014 16 0.235534891486168 -0.0426430143415928 -0.30156198143959 0.385012656450272
-0.0238500005230308 0.0600499968752265 0.00564999974519014 16 0.213493019342422 -0.0960517600178719 -0.269948422908783 0.357319682836533
-0.0210500004813075 0.0600499968752265 0.00564999974519014 16 0.185350298881531 -0.157624572515488 -0.239088505506516 0.341121017932892
-0.0182500004395843 0.0600499968752265 0.00564999974519014 16 0.141635686159134 -0.226285308599472 -0.186177149415016 0.325465261936188
-0.015450000397861 0.0600499968752265 0.00564999974519014 16 0.0793172493577003 -0.292127728462219 -0.111876368522644 0.32271683216095
-0.0126500003561378 0.0600499968752265 0.00564999974519014 16 -0.00438967393711209 -0.331995844841003 -0.00595674989745021 0.332078278064728
-0.0098500003144145 0.0600499968752265 0.00564999974519014 16 -0.100321799516678 -0.324691414833069 0.108914829790592 0.356863290071487
-0.00705000027269125 0.0600499968752265 0.00564999974519014 16 -0.193906396627426 -0.256159573793411 0.218358978629112 0.388455986976624
-0.004250000230968 0.0600499968752265 0.00564999974519014 16 -0.262625366449356 -0.133204832673073 0.293207108974457 0.415555059909821
-0.00145000018924474 0.0600499968752265 0.00564999974519014 16 -0.285479724407196 0.0226884000003338 0.317559331655502 0.427618235349655
0.0013499998524785 0.0600499968752265 0.00564999974519014 16 -0.252727895975113 0.176350310444832 0.281223356723785 0.41720187664032
0.00414999989420176 0.0600499968752265 0.00564999974519014 16 -0.168215319514275 0.292974352836609 0.19090773165226 0.388041406869888
0.006949999935925 0.0600499968752265 0.00564999974519014 16 -0.05751983076334 0.348830997943878 0.0721368789672852 0.360825896263123
0.00974999997764826 0.0600499968752265 0.00564999974519014 16 0.0546656735241413 0.336888253688812 -0.0482664331793785 0.344690710306168
0.0125500000193715 0.0600499968752265 0.00564999974519014 16 0.141175270080566 0.275072038173676 -0.140536978840828 0.339625865221024
0.0153500000610948 0.0600499968752265 0.00564999974519014 16 0.196201100945473 0.188875034451485 -0.197978213429451 0.33669576048851
0.018150000102818 0.0600499968752265 0.00564999974519014 16 0.220815390348434 0.105870105326176 -0.224675178527832 0.332335442304611
0.0209500001445413 0.0600499968752265 0.00564999974519014 16 0.226599097251892 0.0366144962608814 -0.236503750085831 0.329578191041946
0.0237500001862645 0.0600499968752265 0.00564999974519014 16 0.221355095505714 -0.023417292162776 -0.245944693684578 0.331715613603592
0.0265500002279878 0.0600499968752265 0.00564999974519014 16 0.206686183810234 -0.0838315039873123 -0.250474005937576 0.335386544466019
0.029350000269711 0.0600499968752265 0.00564999974519014 16 0.185416415333748 -0.147503107786179 -0.245264083147049 0.341014504432678
0.0321500003114343 0.0600499968752265 0.00564999974519014 16 0.162261247634888 -0.201508715748787 -0.231701791286469 0.347304165363312
0.0349500003531575 0.0600499968752265 0.00564999974519014 16 0.150434553623199 -0.227342396974564 -0.220670387148857 0.35072860121727
-0.0350500006899238 0.0572499968335032 0.00564999974519014 16 0.234675675630569 0.0635337829589844 -0.31186655163765 0.395436406135559
-0.0322500006482005 0.0572499968335032 0.00564999974519014 16 0.228349342942238 0.0441558882594109 -0.305482506752014 0.383943647146225
-0.0294500006064773 0.0572499968335032 0.00564999974519014 16 0.213664248585701 0.00328212883323431 -0.285049945116043 0.356253623962402
-0.026650000564754 0.0572499968335032 0.00564999974519014 16 0.196174144744873 -0.0462329424917698 -0.261157661676407 0.329886496067047
-0.0238500005230308 0.0572499968335032 0.00564999974519014 16 0.176653996109962 -0.100673206150532 -0.232590138912201 0.30893349647522
-0.0210500004813075 0.0572499968335032 0.00564999974519014 16 0.152775183320045 -0.164398655295372 -0.205075636506081 0.304011821746826
-0.0182500004395843 0.0572499968335032 0.00564999974519014 16 0.11766242980957 -0.236939743161201 -0.160987257957458 0.309680134057999
-0.015450000397861 0.0572499968335032 0.00564999974519014 16 0.0671744272112846 -0.308135747909546 -0.0988827794790268 0.330511510372162
-0.0126500003561378 0.0572499968335032 0.00564999974519014 16 -4.79911723232362e-05 -0.352904200553894 -0.0107355527579784 0.353067457675934
-0.0098500003144145 0.0572499968335032 0.00564999974519014 16 -0.079085685312748 -0.348101735115051 0.0863629505038261 0.367270916700363
-0.00705000027269125 0.0572499968335032 0.00564999974519014 16 -0.157821908593178 -0.27670419216156 0.180921465158463 0.366340756416321
-0.004250000230968 0.0572499968335032 0.00564999974519014 16 -0.21823588013649 -0.144712001085281 0.248727202415466 0.361156016588211
-0.00145000018924474 0.0572499968335032 0.00564999974519014 16 -0.240499258041382 0.0248052645474672 0.274672657251358 0.365923851728439
0.0013499998524785 0.0572499968335032 0.00564999974519014 16 -0.214798539876938 0.193203344941139 0.247175008058548 0.380212366580963
0.00414999989420176 0.0572499968335032 0.00564999974519014 16 -0.143675625324249 0.320838421583176 0.170210331678391 0.39057844877243
0.006949999935925 0.0572499968335032 0.00564999974519014 16 -0.0487276948988438 0.380890220403671 0.0649776458740234 0.389453262090683
0.00974999997764826 0.0572499968335032 0.00564999974519014 16 0.0480357743799686 0.366032958030701 -0.0436769612133503 0.371746182441711
0.0125500000193715 0.0572499968335032 0.00564999974519014 16 0.122860915958881 0.296257525682449 -0.127358213067055 0.345084697008133
0.0153500000610948 0.0572499968335032 0.00564999974519014 16 0.170024067163467 0.201357752084732 -0.178061872720718 0.318055272102356
0.018150000102818 0.0572499968335032 0.00564999974519014 16 0.190143048763275 0.111349932849407 -0.198204442858696 0.296375066041946
0.0209500001445413 0.0572499968335032 0.00564999974519014 16 0.193789765238762 0.0379502736032009 -0.204577878117561 0.284335732460022
0.0237500001862645 0.0572499968335032 0.00564999974519014 16 0.188261389732361 -0.0245285574346781 -0.209409445524216 0.282659351825714
0.0265500002279878 0.0572499968335032 0.00564999974519014 16 0.17512159049511 -0.0873421430587769 -0.213377147912979 0.289527267217636
0.029350000269711 0.0572499968335032 0.00564999974519014 16 0.156601265072823 -0.154203593730927 -0.210101827979088 0.304048478603363
0.0321500003114343 0.0572499968335032 0.00564999974519014 16 0.136375427246094 -0.211396083235741 -0.200012132525444 0.32138979434967
0.0349500003531575 0.0572499968335032 0.00564999974519014 16 0.126051351428032 -0.238895118236542 -0.191883146762848 0.331329077482224
-0.0350500006899238 0.05444999679178 0.00564999974519014 16 0.134530276060104 0.0631694570183754 -0.209983885288239 0.257258653640747
-0.0322500006482005 0.05444999679178 0.00564999974519014 16 0.129544883966446 0.0421102344989777 -0.203761011362076 0.245099365711212
-0.0294500006064773 0.05444999679178 0.00564999974519014 16 0.117760933935642 -0.00253362441435456 -0.186125203967094 0.220264956355095
-0.026650000564754 0.05444999679178 0.00564999974519014 16 0.104283392429352 -0.0559001080691814 -0.165952295064926 0.203813672065735
-0.0238500005230308 0.05444999679178 0.00564999974519014 16 0.0906894654035568 -0.11386600881815 -0.143414542078972 0.204347193241119
-0.0210500004813075 0.05444999679178 0.00564999974519014 16 0.0760043784976006 -0.181180596351624 -0.123992137610912 0.232329770922661
-0.0182500004395843 0.05444999679178 0.00564999974519014 16 0.0585758090019226 -0.257466912269592 -0.0971130430698395 0.28133836388588
-0.015450000397861 0.05444999679178 0.00564999974519014 16 0.03558699041605 -0.333409309387207 -0.0629434138536453 0.341159909963608
-0.0126500003561378 0.05444999679178 0.00564999974519014 16 0.00645021768286824 -0.382278770208359 -0.014891748316586 0.382623076438904
-0.0098500003144145 0.05444999679178 0.00564999974519014 16 -0.0315268412232399 -0.379670053720474 0.0387282557785511 0.382940143346786
-0.00705000027269125 0.05444999679178 0.00564999974519014 16 -0.0739107578992844 -0.304373949766159 0.0955610498785973 0.327472478151321
-0.004250000230968 0.05444999679178 0.00564999974519014 16 -0.112258464097977 -0.160219103097916 0.141773357987404 0.241602584719658
-0.00145000018924474 0.05444999679178 0.00564999974519014 16 -0.131034657359123 0.0285868979990482 0.166358113288879 0.213687419891357
0.0013499998524785 0.05444999679178 0.00564999974519014 16 -0.120644740760326 0.218755647540092 0.156497746706009 0.294789284467697
0.00414999989420176 0.05444999679178 0.00564999974519014 16 -0.0801790505647659 0.363789111375809 0.110890194773674 0.388674437999725
0.006949999935925 0.05444999679178 0.00564999974519014 16 -0.0234549343585968 0.431673884391785 0.0417394191026688 0.43432092666626
0.00974999997764826 0.05444999679178 0.00564999974519014 16 0.0351915024220943 0.4139504134655 -0.0324811898171902 0.416711419820786
0.0125500000193715 0.05444999679178 0.00564999974519014 16 0.0793185085058212 0.332642257213593 -0.0884063765406609 0.353210985660553
0.0153500000610948 0.05444999679178 0.00564999974519014 16 0.105946712195873 0.224172309041023 -0.118355683982372 0.274747163057327
0.018150000102818 0.05444999679178 0.00564999974519014 16 0.115027770400047 0.122141525149345 -0.123367838561535 0.208253592252731
0.0209500001445413 0.05444999679178 0.00564999974519014 16 0.114817172288895 0.0405360274016857 -0.119621470570564 0.170691087841988
0.0237500001862645 0.05444999679178 0.00564999974519014 16 0.109827674925327 -0.0278596244752407 -0.11774779856205 0.163409978151321
0.0265500002279878 0.05444999679178 0.00564999974519014 16 0.100787505507469 -0.0955440774559975 -0.120656155049801 0.183969289064407
0.029350000269711 0.05444999679178 0.00564999974519014 16 0.0888896211981773 -0.166543900966644 -0.120844699442387 0.22414655983448
0.0321500003114343 0.05444999679178 0.00564999974519014 16 0.0758545696735382 -0.226912632584572 -0.117012523114681 0.266336619853973
0.0349500003531575 0.05444999679178 0.00564999974519014 16 0.0694543123245239 -0.255350649356842 -0.112011469900608 0.287357658147812
-0.0350500006899238 0.0516499967500567 0.00564999974519014 16 0.0101313469931483 0.0658427476882935 -0.0671754032373428 0.094606801867485
-0.0322500006482005 0.0516499967500567 0.00564999974519014 16 0.00529442122206092 0.0424323342740536 -0.0637354552745819 0.076751172542572
-0.0294500006064773 0.0516499967500567 0.00564999974519014 16 -0.00354243326000869 -0.00672960095107555 -0.0540751256048679 0.0546072833240032
-0.026650000564754 0.0516499967500567 0.00564999974519014 16 -0.0120295649394393 -0.0649379119277 -0.0427310392260551 0.0786611959338188
-0.0238500005230308 0.0516499967500567 0.00564999974519014 16 -0.0172407794743776 -0.125961035490036 -0.0307386536151171 0.130798667669296
-0.0210500004813075 0.0516499967500567 0.00564999974519014 16 -0.0180143024772406 -0.193627953529358 -0.0245630387216806 0.196009293198586
-0.0182500004395843 0.0516499967500567 0.00564999974519014 16 -0.0130087565630674 -0.26714488863945 -0.0201607123017311 0.268220186233521
-0.015450000397861 0.0516499967500567 0.00564999974519014 16 -0.00253148679621518 -0.339044064283371 -0.0222804546356201 0.339784801006317
-0.0126500003561378 0.0516499967500567 0.00564999974519014 16 0.0119856242090464 -0.384617894887924 -0.0237287934869528 0.385535508394241
-0.0098500003144145 0.0516499967500567 0.00564999974519014 16 0.0223948080092669 -0.38085812330246 -0.0238562766462564 0.382261127233505
-0.00705000027269125 0.0516499967500567 0.00564999974519014 16 0.0238013155758381 -0.305626094341278 -0.0136123048141599 0.30685356259346
-0.004250000230968 0.0516499967500567 0.00564999974519014 16 0.0145647972822189 -0.159991413354874 0.00481192814186215 0.16072504222393
-0.00145000018924474 0.0516499967500567 0.00564999974519014 16 0.00314392917789519 0.0326214805245399 0.0253477822989225 0.0414313338696957
0.0013499998524785 0.0516499967500567 0.00564999974519014 16 -0.00305548519827425 0.228503584861755 0.0359642580151558 0.231336668133736
0.00414999989420176 0.0516499967500567 0.00564999974519014 16 -1.96420951397158e-05 0.378779411315918 0.0303837545216084 0.379996091127396
0.006949999935925 0.0516499967500567 0.00564999974519014 16 0.00824170652776957 0.449084669351578 0.00997274182736874 0.449270963668823
0.00974999997764826 0.0516499967500567 0.00564999974519014 16 0.0176753923296928 0.431998550891876 -0.0156417582184076 0.432642847299576
0.0125500000193715 0.0516499967500567 0.00564999974519014 16 0.0220207497477531 0.348502576351166 -0.0327187217772007 0.350727051496506
0.0153500000610948 0.0516499967500567 0.00564999974519014 16 0.0216658711433411 0.23695096373558 -0.0336133390665054 0.240301951766014
0.018150000102818 0.0516499967500567 0.00564999974519014 16 0.0164497308433056 0.129558727145195 -0.0196293480694294 0.132065773010254
0.0209500001445413 0.0516499967500567 0.00564999974519014 16 0.0113205499947071 0.0423386432230473 -0.00305071822367609 0.0439320206642151
0.0237500001862645 0.0516499967500567 0.00564999974519014 16 0.00742738880217075 -0.0303766597062349 0.00616812659427524 0.0318740233778954
0.0265500002279878 0.0516499967500567 0.00564999974519014 16 0.00448941718786955 -0.100359380245209 0.00428506173193455 0.100551091134548
0.029350000269711 0.0516499967500567 0.00564999974519014 16 0.00164135312661529 -0.171254009008408 -0.00196001026779413 0.171273082494736
0.0321500003114343 0.0516499967500567 0.00564999974519014 16 -0.00131490058265626 -0.231547132134438 -0.00828813016414642 0.231699153780937
0.0349500003531575 0.0516499967500567 0.00564999974519014 16 -0.00241731223650277 -0.259431123733521 -0.0103340279310942 0.259648114442825
-0.0350500006899238 0.0488499967083335 0.00564999974519014 16 -0.09743881970644 0.0660781860351562 0.0602333433926105 0.132244870066643
-0.0322500006482005 0.0488499967083335 0.00564999974519014 16 -0.10163538902998 0.0416186898946762 0.0633443668484688 0.126784756779671
-0.0294500006064773 0.0488499967083335 0.00564999974519014 16 -0.107483938336372 -0.0102016674354672 0.0671332180500031 0.127136692404747
-0.026650000564754 0.0488499967083335 0.00564999974519014 16 -0.11060057580471 -0.0718086734414101 0.0694266259670258 0.149026945233345
-0.0238500005230308 0.0488499967083335 0.00564999974519014 16 -0.108358956873417 -0.133703649044037 0.0702946037054062 0.185902282595634
-0.0210500004813075 0.0488499967083335 0.00564999974519014 16 -0.0972305983304977 -0.196628794074059 0.0631236359477043 0.228257015347481
-0.0182500004395843 0.0488499967083335 0.00564999974519014 16 -0.0742988064885139 -0.258820921182632 0.0480686165392399 0.273530930280685
-0.015450000397861 0.0488499967083335 0.00564999974519014 16 -0.0362832508981228 -0.315000474452972 0.0150525905191898 0.317440301179886
-0.0126500003561378 0.0488499967083335 0.00564999974519014 16 0.0132948914542794 -0.347139537334442 -0.0275358483195305 0.348483622074127
-0.0098500003144145 0.0488499967083335 0.00564999974519014 16 0.0629455000162125 -0.337478190660477 -0.072766900062561 0.350925475358963
-0.00705000027269125 0.0488499967083335 0.00564999974519014 16 0.100071385502815 -0.268416523933411 -0.103429444134235 0.304564207792282
-0.004250000230968 0.0488499967083335 0.00564999974519014 16 0.115547381341457 -0.138516485691071 -0.111580550670624 0.212104305624962
-0.00145000018924474 0.0488499967083335 0.00564999974519014 16 0.111572720110416 0.0326650179922581 -0.0986038371920586 0.152440786361694
0.0013499998524785 0.0488499967083335 0.00564999974519014 16 0.093585804104805 0.208467572927475 -0.0732435956597328 0.23996177315712
0.00414999989420176 0.0488499967083335 0.00564999974519014 16 0.0673713088035583 0.345713257789612 -0.044905886054039 0.355067729949951
0.006949999935925 0.0488499967083335 0.00564999974519014 16 0.0360723584890366 0.412725239992142 -0.0205212607979774 0.414806514978409
0.00974999997764826 0.0488499967083335 0.00564999974519014 16 0.00276438449509442 0.402556031942368 0.00296839838847518 0.402576476335526
0.0125500000193715 0.0488499967083335 0.00564999974519014 16 -0.0290238317102194 0.330954790115356 0.0276253148913383 0.333371579647064
0.0153500000610948 0.0488499967083335 0.00564999974519014 16 -0.055059626698494 0.231224417686462 0.058623518794775 0.244812205433846
0.018150000102818 0.0488499967083335 0.00564999974519014 16 -0.0729559808969498 0.130106672644615 0.0899144187569618 0.17416924238205
0.0209500001445413 0.0488499967083335 0.00564999974519014 16 -0.0809810906648636 0.0433555394411087 0.114457108080387 0.146758541464806
0.0237500001862645 0.0488499967083335 0.00564999974519014 16 -0.0812221840023994 -0.0304674580693245 0.124581836163998 0.151808902621269
0.0265500002279878 0.0488499967083335 0.00564999974519014 16 -0.0759665071964264 -0.0993315875530243 0.119725584983826 0.17312391102314
0.029350000269711 0.0488499967083335 0.00564999974519014 16 -0.0686753615736961 -0.164468094706535 0.105867259204388 0.207301557064056
0.0321500003114343 0.0488499967083335 0.00564999974519014 16 -0.0611195005476475 -0.218492403626442 0.0907030329108238 0.244339033961296
0.0349500003531575 0.0488499967083335 0.00564999974519014 16 -0.0570585988461971 -0.242802664637566 0.0830372795462608 0.26287642121315
-0.0350500006899238 0.0460499966666102 0.00564999974519014 16 -0.14607298374176 0.0608928129076958 0.146684974431992 0.215781673789024
-0.0322500006482005 0.0460499966666102 0.00564999974519014 16 -0.150350376963615 0.0377477779984474 0.14673587679863 0.213451519608498
-0.0294500006064773 0.0460499966666102 0.00564999974519014 16 -0.156151279807091 -0.0117576727643609 0.143860027194023 0.212643295526505
-0.026650000564754 0.0460499966666102 0.00564999974519014 16 -0.157108694314957 -0.0709307417273521 0.136419549584389 0.219828590750694
-0.0238500005230308 0.0460499966666102 0.00564999974519014 16 -0.150469273328781 -0.128956943750381 0.12609837949276 0.234886571764946
-0.0210500004813075 0.0460499966666102 0.00564999974519014 16 -0.131677195429802 -0.183129370212555 0.107318073511124 0.249784752726555
-0.0182500004395843 0.0460499966666102 0.00564999974519014 16 -0.0990568548440933 -0.230594024062157 0.0787903219461441 0.263047099113464
-0.015450000397861 0.0460499966666102 0.00564999974519014 16 -0.0489816702902317 -0.267641842365265 0.028503155335784 0.273575931787491
-0.0126500003561378 0.0460499966666102 0.00564999974519014 16 0.0138801801949739 -0.283616423606873 -0.0359367430210114 0.286220848560333
-0.0098500003144145 0.0460499966666102 0.00564999974519014 16 0.0777381435036659 -0.267207413911819 -0.102656334638596 0.296616494655609
-0.00705000027269125 0.0460499966666102 0.00564999974519014 16 0.128064647316933 -0.208212822675705 -0.151752978563309 0.287718772888184
-0.004250000230968 0.0460499966666102 0.00564999974519014 16 0.153312429785728 -0.104557409882545 -0.170332223176956 0.251892864704132
-0.00145000018924474 0.0460499966666102 0.00564999974519014 16 0.152420073747635 0.0291241686791182 -0.159680142998695 0.222660824656487
0.0013499998524785 0.0460499966666102 0.00564999974519014 16 0.129360407590866 0.167243838310242 -0.126324072480202 0.246297359466553
0.00414999989420176 0.0460499966666102 0.00564999974519014 16 0.0900022834539413 0.27696818113327 -0.0800691023468971 0.302031189203262
0.006949999935925 0.0460499966666102 0.00564999974519014 16 0.0411507710814476 0.334279626607895 -0.0309812426567078 0.338224917650223
0.00974999997764826 0.0460499966666102 0.00564999974519014 16 -0.0117886886000633 0.333534091711044 0.0207142345607281 0.334384590387344
0.0125500000193715 0.0460499966666102 0.00564999974519014 16 -0.0607970729470253 0.284360855817795 0.0699433013796806 0.29908099770546
0.0153500000610948 0.0460499966666102 0.00564999974519014 16 -0.100299797952175 0.208861663937569 0.119846038520336 0.26085689663887
0.018150000102818 0.0460499966666102 0.00564999974519014 16 -0.124765910208225 0.124948769807816 0.160503447055817 0.238621219992638
0.0209500001445413 0.0460499966666102 0.00564999974519014 16 -0.133388817310333 0.0459938980638981 0.187631145119667 0.234762564301491
0.0237500001862645 0.0460499966666102 0.00564999974519014 16 -0.129044353961945 -0.023934418335557 0.195259138941765 0.235268846154213
0.0265500002279878 0.0460499966666102 0.00564999974519014 16 -0.115608684718609 -0.087652713060379 0.185306593775749 0.235344216227531
0.029350000269711 0.0460499966666102 0.00564999974519014 16 -0.098891369998455 -0.143942624330521 0.163518309593201 0.239243015646935
0.0321500003114343 0.0460499966666102 0.00564999974519014 16 -0.0823698714375496 -0.189101859927177 0.140247493982315 0.249426677823067
0.0349500003531575 0.0460499966666102 0.00564999974519014 16 -0.0745271593332291 -0.208857789635658 0.127755746245384 0.255924612283707
-0.0350500006899238 0.043249996624887 0.00564999974519014 16 -0.137122720479965 0.0469369478523731 0.172145798802376 0.225033089518547
-0.0322500006482005 0.043249996624887 0.00564999974519014 16 -0.141505405306816 0.0271829273551702 0.171895518898964 0.224300608038902
-0.0294500006064773 0.043249996624887 0.00564999974519014 16 -0.148365333676338 -0.0156730338931084 0.167735561728477 0.224484145641327
-0.026650000564754 0.043249996624887 0.00564999974519014 16 -0.149573087692261 -0.0670031011104584 0.155400693416595 0.225855931639671
-0.0238500005230308 0.043249996624887 0.00564999974519014 16 -0.142274990677834 -0.116963155567646 0.138466462492943 0.230424627661705
-0.0210500004813075 0.043249996624887 0.00564999974519014 16 -0.123009324073792 -0.160690486431122 0.113746680319309 0.232144415378571
-0.0182500004395843 0.043249996624887 0.00564999974519014 16 -0.0907495319843292 -0.194821879267693 0.0796587243676186 0.229208543896675
-0.015450000397861 0.043249996624887 0.00564999974519014 16 -0.0436485260725021 -0.216156527400017 0.0275311637669802 0.222231432795525
-0.0126500003561378 0.043249996624887 0.00564999974519014 16 0.0142456134781241 -0.219395160675049 -0.0383476130664349 0.223176419734955
-0.0098500003144145 0.043249996624887 0.00564999974519014 16 0.0715964362025261 -0.198850408196449 -0.10345009714365 0.235307157039642
-0.00705000027269125 0.043249996624887 0.00564999974519014 16 0.115921273827553 -0.150731101632118 -0.151908382773399 0.24337987601757
-0.004250000230968 0.043249996624887 0.00564999974519014 16 0.137083977460861 -0.073731355369091 -0.169396296143532 0.230050936341286
-0.00145000018924474 0.043249996624887 0.00564999974519014 16 0.133734494447708 0.0220608804374933 -0.158174946904182 0.208304867148399
0.0013499998524785 0.043249996624887 0.00564999974519014 16 0.110475949943066 0.121635623276234 -0.12376906722784 0.20571568608284
0.00414999989420176 0.043249996624887 0.00564999974519014 16 0.0723827034235001 0.203240945935249 -0.0758135467767715 0.228678449988365
0.006949999935925 0.043249996624887 0.00564999974519014 16 0.0262368600815535 0.250858396291733 -0.0234501678496599 0.253314465284348
0.00974999997764826 0.043249996624887 0.00564999974519014 16 -0.024772759526968 0.25923228263855 0.033625390380621 0.262575209140778
0.0125500000193715 0.043249996624887 0.00564999974519014 16 -0.0733085125684738 0.232472479343414 0.0897940173745155 0.259770214557648
0.0153500000610948 0.043249996624887 0.00564999974519014 16 -0.113541334867477 0.182728543877602 0.144816428422928 0.259332150220871
0.018150000102818 0.043249996624887 0.00564999974519014 16 -0.137802094221115 0.119678817689419 0.186846882104874 0.261197596788406
0.0209500001445413 0.043249996624887 0.00564999974519014 16 -0.143639385700226 0.0529854707419872 0.210250437259674 0.260086476802826
0.0237500001862645 0.043249996624887 0.00564999974519014 16 -0.133832767605782 -0.0105784209445119 0.211198329925537 0.250255554914474
0.0265500002279878 0.043249996624887 0.00564999974519014 16 -0.113091662526131 -0.0688314065337181 0.193631455302238 0.234564766287804
0.029350000269711 0.043249996624887 0.00564999974519014 16 -0.0892733931541443 -0.117557883262634 0.16530454158783 0.221619471907616
0.0321500003114343 0.043249996624887 0.00564999974519014 16 -0.0673988610506058 -0.154698193073273 0.137677654623985 0.217782616615295
0.0349500003531575 0.043249996624887 0.00564999974519014 16 -0.0576197765767574 -0.170493334531784 0.123659111559391 0.218356564640999
-0.0350500006899238 0.0404499965831637 0.00564999974519014 16 -0.096320852637291 0.0274810660630465 0.16043721139431 0.189137563109398
-0.0322500006482005 0.0404499965831637 0.00564999974519014 16 -0.10104164481163 0.011994837783277 0.159611985087395 0.189286231994629
-0.0294500006064773 0.0404499965831637 0.00564999974519014 16 -0.109224483370781 -0.0219942294061184 0.15621130168438 0.19187419116497
-0.026650000564754 0.0404499965831637 0.00564999974519014 16 -0.111782297492027 -0.0630095526576042 0.142343372106552 0.191643223166466
-0.0238500005230308 0.0404499965831637 0.00564999974519014 16 -0.105122499167919 -0.103355444967747 0.122389860451221 0.191604718565941
-0.0210500004813075 0.0404499965831637 0.00564999974519014 16 -0.0880848467350006 -0.137382715940475 0.0952797383069992 0.188974007964134
-0.0182500004395843 0.0404499965831637 0.00564999974519014 16 -0.0606303028762341 -0.161869168281555 0.0610574595630169 0.183318510651588
-0.015450000397861 0.0404499965831637 0.00564999974519014 16 -0.0243132412433624 -0.173195540904999 0.0155481044203043 0.175583526492119
-0.0126500003561378 0.0404499965831637 0.00564999974519014 16 0.0186976511031389 -0.169316947460175 -0.0411833375692368 0.175253808498383
-0.0098500003144145 0.0404499965831637 0.00564999974519014 16 0.0589209906756878 -0.147741943597794 -0.093401625752449 0.18445385992527
-0.00705000027269125 0.0404499965831637 0.00564999974519014 16 0.0881132930517197 -0.108588017523289 -0.13071796298027 0.191422298550606
-0.004250000230968 0.0404499965831637 0.00564999974519014 16 0.099234439432621 -0.0517306216061115 -0.139863193035126 0.179123550653458
-0.00145000018924474 0.0404499965831637 0.00564999974519014 16 0.0912655293941498 0.0159663632512093 -0.125773638486862 0.156215652823448
0.0013499998524785 0.0404499965831637 0.00564999974519014 16 0.069499209523201 0.085927277803421 -0.0936796292662621 0.144877567887306
0.00414999989420176 0.0404499965831637 0.00564999974519014 16 0.0377551838755608 0.144927501678467 -0.0520503483712673 0.158551797270775
0.006949999935925 0.0404499965831637 0.00564999974519014 16 0.00222448026761413 0.18339729309082 -0.00743448035791516 0.183561399579048
0.00974999997764826 0.0404499965831637 0.00564999974519014 16 -0.0362516567111015 0.198009833693504 0.0405611619353294 0.20534673333168
0.0125500000193715 0.0404499965831637 0.00564999974519014 16 -0.074151873588562 0.18924655020237 0.0894073992967606 0.222050532698631
0.0153500000610948 0.0404499965831637 0.00564999974519014 16 -0.106723926961422 0.161805674433708 0.136475965380669 0.237058565020561
0.018150000102818 0.0404499965831637 0.00564999974519014 16 -0.127105370163918 0.118126682937145 0.172190800309181 0.244457274675369
0.0209500001445413 0.0404499965831637 0.00564999974519014 16 -0.130001395940781 0.0645337998867035 0.189091876149178 0.238370954990387
0.0237500001862645 0.0404499965831637 0.00564999974519014 16 -0.11758478730917 0.00832452718168497 0.185256659984589 0.219580307602882
0.0265500002279878 0.0404499965831637 0.00564999974519014 16 -0.0936223417520523 -0.0446743071079254 0.164233714342117 0.194251507520676
0.029350000269711 0.0404499965831637 0.00564999974519014 16 -0.0665246471762657 -0.088192954659462 0.133878067135811 0.173570916056633
0.0321500003114343 0.0404499965831637 0.00564999974519014 16 -0.0422397330403328 -0.120042353868484 0.105308696627617 0.165179550647736
0.0349500003531575 0.0404499965831637 0.00564999974519014 16 -0.0314700454473495 -0.133111223578453 0.0912798419594765 0.164441391825676
-0.0350500006899238 0.0376499965414405 0.00564999974519014 16 -0.0561886020004749 0.00587249035015702 0.134237140417099 0.145640850067139
-0.0322500006482005 0.0376499965414405 0.00564999974519014 16 -0.0605039671063423 -0.00595749402418733 0.133837580680847 0.146999046206474
-0.0294500006064773 0.0376499965414405 0.00564999974519014 16 -0.068452313542366 -0.0316376499831676 0.132492706179619 0.152449905872345
-0.026650000564754 0.0376499965414405 0.00564999974519014 16 -0.0710187181830406 -0.0625260844826698 0.119604617357254 0.152507156133652
-0.0238500005230308 0.0376499965414405 0.00564999974519014 16 -0.065024770796299 -0.0933335423469543 0.0999447777867317 0.151421040296555
-0.0210500004813075 0.0376499965414405 0.00564999974519014 16 -0.050834771245718 -0.118882797658443 0.0733726471662521 0.148663505911827
-0.0182500004395843 0.0376499965414405 0.00564999974519014 16 -0.0293687079101801 -0.136764213442802 0.0424929820001125 0.146193787455559
-0.015450000397861 0.0376499965414405 0.00564999974519014 16 -0.00399593356996775 -0.142561674118042 0.00645147124305367 0.142763510346413
-0.0126500003561378 0.0376499965414405 0.00564999974519014 16 0.0245735570788383 -0.136081576347351 -0.036530040204525 0.14302621781826
-0.0098500003144145 0.0376499965414405 0.00564999974519014 16 0.0490713976323605 -0.115785486996174 -0.0736223235726357 0.145720720291138
-0.00705000027269125 0.0376499965414405 0.00564999974519014 16 0.0648385658860207 -0.0834277719259262 -0.100080445408821 0.145534634590149