TITLE="DynamicStudio Exported Data"
VARIABLES= "X (m)[m]" "Y (m)[m]" "Z (m)[m]" "Status[-]" "U[-]" "V[-]" "W[-]" "Length[-]"
ZONE T="DynamicStudio Data" F=POINT
-0.0350500006899238 0.0600499968752265 0.00564999974519014 16 0.146587789058685 0.33307084441185 -0.151272088289261 0.394090622663498
-0.0322500006482005 0.0600499968752265 0.00564999974519014 16 0.166993767023087 0.300180673599243 -0.174258679151535 0.385177165269852
-0.0294500006064773 0.0600499968752265 0.00564999974519014 16 0.204604834318161 0.228151336312294 -0.216971516609192 0.375490099191666
-0.026650000564754 0.0600499968752265 0.00564999974519014 16 0.233794152736664 0.141740292310715 -0.245960026979446 0.367758542299271
-0.0238500005230308 0.0600499968752265 0.00564999974519014 16 0.241446763277054 0.0580437667667866 -0.250227749347687 0.352533042430878
-0.0210500004813075 0.0600499968752265 0.00564999974519014 16 0.234069302678108 -0.0124682923778892 -0.23750464618206 0.333694994449615
-0.0182500004395843 0.0600499968752265 0.00564999974519014 16 0.215280160307884 -0.0809266716241837 -0.21910086274147 0.317647397518158
-0.015450000397861 0.0600499968752265 0.00564999974519014 16 0.195309013128281 -0.153942972421646 -0.208489984273911 0.324518293142319
-0.0126500003561378 0.0600499968752265 0.00564999974519014 16 0.163899138569832 -0.236185938119888 -0.192443266510963 0.345949620008469
-0.0098500003144145 0.0600499968752265 0.00564999974519014 16 0.118680261075497 -0.31297293305397 -0.164253816008568 0.372848987579346
-0.00705000027269125 0.0600499968752265 0.00564999974519014 16 0.0492838472127914 -0.363843083381653 -0.100482486188412 0.380667060613632
-0.004250000230968 0.0600499968752265 0.00564999974519014 16 -0.0458801276981831 -0.36703035235405 0.00152571185026318 0.369889974594116
-0.00145000018924474 0.0600499968752265 0.00564999974519014 16 -0.153941318392754 -0.307732433080673 0.127312794327736 0.366886526346207
0.0013499998524785 0.0600499968752265 0.00564999974519014 16 -0.250743210315704 -0.187606960535049 0.242735132575035 0.396218210458755
0.00414999989420176 0.0600499968752265 0.00564999974519014 16 -0.302314102649689 -0.0242395047098398 0.30353707075119 0.429087549448013
0.006949999935925 0.0600499968752265 0.00564999974519014 16 -0.29302841424942 0.147854626178741 0.298454880714417 0.443623661994934
0.00974999997764826 0.0600499968752265 0.00564999974519014 16 -0.221211388707161 0.288961082696915 0.222167119383812 0.426369816064835
0.0125500000193715 0.0600499968752265 0.00564999974519014 16 -0.111371554434299 0.371945559978485 0.113962262868881 0.40464124083519
0.0153500000610948 0.0600499968752265 0.00564999974519014 16 0.0121693210676312 0.385088384151459 -0.00805939733982086 0.385364890098572
0.018150000102818 0.0600499968752265 0.00564999974519014 16 0.11679121106863 0.3392054438591 -0.101440258324146 0.372814476490021
0.0209500001445413 0.0600499968752265 0.00564999974519014 16 0.190054997801781 0.255025118589401 -0.159923180937767 0.355997383594513
0.0237500001862645 0.0600499968752265 0.00564999974519014 16 0.223871603608131 0.157486096024513 -0.17594550549984 0.325387746095657
0.0265500002279878 0.0600499968752265 0.00564999974519014 16 0.230220586061478 0.0701458156108856 -0.169776782393456 0.294526934623718
0.029350000269711 0.0600499968752265 0.00564999974519014 16 0.219678103923798 0.00490474514663219 -0.155989646911621 0.269472241401672
0.0321500003114343 0.0600499968752265 0.00564999974519014 16 0.206636488437653 -0.0335609540343285 -0.146593049168587 0.255567014217377
0.0349500003531575 0.0600499968752265 0.00564999974519014 16 0.198790699243546 -0.0476021431386471 -0.141028076410294 0.248339742422104
-0.0350500006899238 0.0572499968335032 0.00564999974519014 16 0.126245021820068 0.354826122522354 -0.123754061758518 0.396427124738693
-0.0322500006482005 0.0572499968335032 0.00564999974519014 16 0.143200367689133 0.319308966398239 -0.142903417348862 0.37800258398056
-0.0294500006064773 0.0572499968335032 0.00564999974519014 16 0.174192354083061 0.240379750728607 -0.178588211536407 0.346437811851501
-0.026650000564754 0.0572499968335032 0.00564999974519014 16 0.197804942727089 0.146749019622803 -0.203409343957901 0.319432973861694
-0.0238500005230308 0.0572499968335032 0.00564999974519014 16 0.203103572130203 0.0568301044404507 -0.207297772169113 0.295724660158157
-0.0210500004813075 0.0572499968335032 0.00564999974519014 16 0.195953607559204 -0.0176552701741457 -0.197594657540321 0.278842568397522
-0.0182500004395843 0.0572499968335032 0.00564999974519014 16 0.179816544055939 -0.0880192145705223 -0.183483630418777 0.271565109491348
-0.015450000397861 0.0572499968335032 0.00564999974519014 16 0.163573578000069 -0.163129284977913 -0.17686827480793 0.290946513414383
-0.0126500003561378 0.0572499968335032 0.00564999974519014 16 0.139807924628258 -0.248245015740395 -0.168147400021553 0.330825328826904
-0.0098500003144145 0.0572499968335032 0.00564999974519014 16 0.106547176837921 -0.331150025129318 -0.150174140930176 0.378899604082108
-0.00705000027269125 0.0572499968335032 0.00564999974519014 16 0.053002554923296 -0.388425409793854 -0.101887963712215 0.405049055814743
-0.004250000230968 0.0572499968335032 0.00564999974519014 16 -0.0248849261552095 -0.395650237798691 -0.0170144494622946 0.396797001361847
-0.00145000018924474 0.0572499968335032 0.00564999974519014 16 -0.117916353046894 -0.334442883729935 0.0921761244535446 0.366405159235001
0.0013499998524785 0.0572499968335032 0.00564999974519014 16 -0.203858971595764 -0.205343514680862 0.19526207447052 0.349072635173798
0.00414999989420176 0.0572499968335032 0.00564999974519014 16 -0.251025259494781 -0.0284540206193924 0.251328408718109 0.356355547904968
0.006949999935925 0.0572499968335032 0.00564999974519014 16 -0.245165750384331 0.158823356032372 0.24955977499485 0.384202003479004
0.00974999997764826 0.0572499968335032 0.00564999974519014 16 -0.184604421257973 0.312339633703232 0.185397386550903 0.407439589500427
0.0125500000193715 0.0572499968335032 0.00564999974519014 16 -0.0912460759282112 0.402121305465698 0.0916820168495178 0.422413289546967
0.0153500000610948 0.0572499968335032 0.00564999974519014 16 0.0139870410785079 0.415277272462845 -0.0134826898574829 0.415731430053711
0.018150000102818 0.0572499968335032 0.00564999974519014 16 0.10338319092989 0.363233119249344 -0.0943515747785568 0.389266729354858
0.0209500001445413 0.0572499968335032 0.00564999974519014 16 0.165482401847839 0.27001941204071 -0.142839953303337 0.347416400909424
0.0237500001862645 0.0572499968335032 0.00564999974519014 16 0.193582653999329 0.163537383079529 -0.153148874640465 0.29609677195549
0.0265500002279878 0.0572499968335032 0.00564999974519014 16 0.197098568081856 0.0700643658638 -0.141575783491135 0.252587735652924
0.029350000269711 0.0572499968335032 0.00564999974519014 16 0.185616433620453 0.00174686289392412 -0.122290663421154 0.222287014126778
0.0321500003114343 0.0572499968335032 0.00564999974519014 16 0.172474548220634 -0.0373595505952835 -0.108777314424515 0.207305833697319
0.0349500003531575 0.0572499968335032 0.00564999974519014 16 0.165048703551292 -0.0520325750112534 -0.102586001157761 0.201177418231964
-0.0350500006899238 0.05444999679178 0.00564999974519014 16 0.073726624250412 0.387223869562149 -0.0473031550645828 0.397008210420609
-0.0322500006482005 0.05444999679178 0.00564999974519014 16 0.0826974958181381 0.347752422094345 -0.0599376000463963 0.362440526485443
-0.0294500006064773 0.05444999679178 0.00564999974519014 16 0.0978311821818352 0.258073031902313 -0.0826145485043526 0.288093358278275
-0.026650000564754 0.05444999679178 0.00564999974519014 16 0.10872932523489 0.152522042393684 -0.0999284759163857 0.212298706173897
-0.0238500005230308 0.05444999679178 0.00564999974519014 16 0.108524434268475 0.0520666353404522 -0.104182459414005 0.159193187952042
-0.0210500004813075 0.05444999679178 0.00564999974519014 16 0.10282339155674 -0.028585085645318 -0.10200759768486 0.147632330656052
-0.0182500004395843 0.05444999679178 0.00564999974519014 16 0.0926974043250084 -0.100786045193672 -0.0980601236224174 0.168423354625702
-0.015450000397861 0.05444999679178 0.00564999974519014 16 0.0862803906202316 -0.177360340952873 -0.102757014334202 0.222396045923233
-0.0126500003561378 0.05444999679178 0.00564999974519014 16 0.079534538090229 -0.265869051218033 -0.110023081302643 0.298525005578995
-0.0098500003144145 0.05444999679178 0.00564999974519014 16 0.073039285838604 -0.357654094696045 -0.115660041570663 0.382920920848846
-0.00705000027269125 0.05444999679178 0.00564999974519014 16 0.0558165870606899 -0.424795061349869 -0.10295294970274 0.440642297267914
-0.004250000230968 0.05444999679178 0.00564999974519014 16 0.019209748134017 -0.438677310943604 -0.0609562657773495 0.443308532238007
-0.00145000018924474 0.05444999679178 0.00564999974519014 16 -0.035465557128191 -0.375491917133331 0.00531004182994366 0.377200454473495
0.0013499998524785 0.05444999679178 0.00564999974519014 16 -0.0938166826963425 -0.233932822942734 0.0771787241101265 0.263595700263977
0.00414999989420176 0.05444999679178 0.00564999974519014 16 -0.129891976714134 -0.0374585464596748 0.120793253183365 0.181290030479431
0.006949999935925 0.05444999679178 0.00564999974519014 16 -0.132994845509529 0.172636762261391 0.126659750938416 0.252059072256088
0.00974999997764826 0.05444999679178 0.00564999974519014 16 -0.0996551290154457 0.345082402229309 0.0890824645757675 0.370065778493881
0.0125500000193715 0.05444999679178 0.00564999974519014 16 -0.0462154448032379 0.445255875587463 0.0328883081674576 0.448854446411133
0.0153500000610948 0.05444999679178 0.00564999974519014 16 0.0157756488770247 0.458440959453583 -0.0302895084023476 0.459711223840714
0.018150000102818 0.05444999679178 0.00564999974519014 16 0.0682898089289665 0.397093236446381 -0.0767144486308098 0.410160511732101
0.0209500001445413 0.05444999679178 0.00564999974519014 16 0.104283735156059 0.290983498096466 -0.0999611765146255 0.324867248535156
0.0237500001862645 0.05444999679178 0.00564999974519014 16 0.118656277656555 0.172098278999329 -0.0948797166347504 0.229563266038895
0.0265500002279878 0.05444999679178 0.00564999974519014 16 0.116684950888157 0.0715724006295204 -0.0715848207473755 0.154474511742592
0.029350000269711 0.05444999679178 0.00564999974519014 16 0.103805541992188 0.000930095033254474 -0.0407781787216663 0.111531674861908
0.0321500003114343 0.05444999679178 0.00564999974519014 16 0.0905861333012581 -0.037308644503355 -0.0170221850275993 0.0994360968470573
0.0349500003531575 0.05444999679178 0.00564999974519014 16 0.0828737840056419 -0.050711665302515 -0.00519622629508376 0.0972971618175507
-0.0350500006899238 0.0516499967500567 0.00564999974519014 16 0.0166285689920187 0.396042197942734 0.0408989936113358 0.398495495319366
-0.0322500006482005 0.0516499967500567 0.00564999974519014 16 0.0143198510631919 0.355954080820084 0.0384070873260498 0.358306407928467
-0.0294500006064773 0.0516499967500567 0.00564999974519014 16 0.00792315602302551 0.264299362897873 0.0329275391995907 0.266460418701172
-0.026650000564754 0.0516499967500567 0.00564999974519014 16 0.00104594591539353 0.155350938439369 0.0252388846129179 0.157391250133514
-0.0238500005230308 0.0516499967500567 0.00564999974519014 16 -0.00778814265504479 0.0506136491894722 0.0203258357942104 0.0550957024097443
-0.0210500004813075 0.0516499967500567 0.00564999974519014 16 -0.0126122003421187 -0.0350021831691265 0.0135736586526036 0.0396038480103016
-0.0182500004395843 0.0516499967500567 0.00564999974519014 16 -0.0157052334398031 -0.109245233237743 0.00665509793907404 0.110568821430206
-0.015450000397861 0.0516499967500567 0.00564999974519014 16 -0.00993170123547316 -0.184855744242668 -0.0106232147663832 0.185426905751228
-0.0126500003561378 0.0516499967500567 0.00564999974519014 16 0.00385857047513127 -0.26935601234436 -0.0370049327611923 0.271913409233093
-0.0098500003144145 0.0516499967500567 0.00564999974519014 16 0.0278712920844555 -0.358746290206909 -0.0718591809272766 0.366932481527328
-0.00705000027269125 0.0516499967500567 0.00564999974519014 16 0.0516427494585514 -0.425556719303131 -0.101861819624901 0.440614730119705
-0.004250000230968 0.0516499967500567 0.00564999974519014 16 0.0626970529556274 -0.440724402666092 -0.11193136125803 0.459018021821976
-0.00145000018924474 0.0516499967500567 0.00564999974519014 16 0.055827509611845 -0.378573387861252 -0.0997132956981659 0.395445644855499
0.0013499998524785 0.0516499967500567 0.00564999974519014 16 0.0346296280622482 -0.236557379364967 -0.069975845515728 0.249108850955963
0.00414999989420176 0.0516499967500567 0.00564999974519014 16 0.015770398080349 -0.0383842140436172 -0.0455953329801559 0.0616521500051022
0.006949999935925 0.0516499967500567 0.00564999974519014 16 0.00337221031077206 0.175102680921555 -0.0308364871889353 0.177829161286354
0.00974999997764826 0.0516499967500567 0.00564999974519014 16 0.00354557321406901 0.351942718029022 -0.0343644358217716 0.353634208440781
0.0125500000193715 0.0516499967500567 0.00564999974519014 16 0.0079025411978364 0.455481618642807 -0.0415375046432018 0.457439959049225
0.0153500000610948 0.0516499967500567 0.00564999974519014 16 0.0158052742481232 0.470522820949554 -0.0497713796794415 0.47341176867485
0.018150000102818 0.0516499967500567 0.00564999974519014 16 0.0200986042618752 0.408117741346359 -0.0470321476459503 0.411310166120529
0.0209500001445413 0.0516499967500567 0.00564999974519014 16 0.0205264892429113 0.300444215536118 -0.0340474732220173 0.303063184022903
0.0237500001862645 0.0516499967500567 0.00564999974519014 16 0.0151599757373333 0.179156363010406 -0.00811788532882929 0.179979786276817
0.0265500002279878 0.0516499967500567 0.00564999974519014 16 0.00710356282070279 0.0758049488067627 0.0256009120494127 0.0803259462118149
0.029350000269711 0.0516499967500567 0.00564999974519014 16 -0.00356114422902465 0.0012487230123952 0.0614425651729107 0.0615583434700966
0.0321500003114343 0.0516499967500567 0.00564999974519014 16 -0.0116651514545083 -0.0408553741872311 0.0880313739180565 0.0977484509348869
0.0349500003531575 0.0516499967500567 0.00564999974519014 16 -0.0160154402256012 -0.0568291731178761 0.0992801785469055 0.115510188043118
-0.0350500006899238 0.0488499967083335 0.00564999974519014 16 -0.0267301518470049 0.365228682756424 0.119125962257385 0.38509413599968
-0.0322500006482005 0.0488499967083335 0.00564999974519014 16 -0.0391166545450687 0.328675627708435 0.123775258660316 0.35338094830513
-0.0294500006064773 0.0488499967083335 0.00564999974519014 16 -0.0651238337159157 0.24626924097538 0.131891652941704 0.286853730678558
-0.026650000564754 0.0488499967083335 0.00564999974519014 16 -0.0890994369983673 0.145419329404831 0.133108988404274 0.216341152787209
-0.0238500005230308 0.0488499967083335 0.00564999974519014 16 -0.107090726494789 0.0466482006013393 0.129851832985878 0.174659609794617
-0.0210500004813075 0.0488499967083335 0.00564999974519014 16 -0.11310451477766 -0.037520807236433 0.118421331048012 0.168000161647797
-0.0182500004395843 0.0488499967083335 0.00564999974519014 16 -0.110909044742584 -0.108981542289257 0.103433020412922 0.186751663684845
-0.015450000397861 0.0488499967083335 0.00564999974519014 16 -0.0951871946454048 -0.178577721118927 0.0754873529076576 0.215983673930168
-0.0126500003561378 0.0488499967083335 0.00564999974519014 16 -0.0644315332174301 -0.251286685466766 0.0318084023892879 0.261358350515366
-0.0098500003144145 0.0488499967083335 0.00564999974519014 16 -0.0166394170373678 -0.32611221075058 -0.0291175749152899 0.327832102775574
-0.00705000027269125 0.0488499967083335 0.00564999974519014 16 0.0400380790233612 -0.380054205656052 -0.0977905765175819 0.39447084069252
-0.004250000230968 0.0488499967083335 0.00564999974519014 16 0.0904574319720268 -0.389745086431503 -0.154718205332756 0.428977251052856
-0.00145000018924474 0.0488499967083335 0.00564999974519014 16 0.125170260667801 -0.3331458568573 -0.191417351365089 0.404096961021423
0.0013499998524785 0.0488499967083335 0.00564999974519014 16 0.136898890137672 -0.208042323589325 -0.199978739023209 0.319396942853928
0.00414999989420176 0.0488499967083335 0.00564999974519014 16 0.133886441588402 -0.0332941561937332 -0.195574834942818 0.239339917898178
0.006949999935925 0.0488499967083335 0.00564999974519014 16 0.114773482084274 0.155984535813332 -0.176645815372467 0.262121886014938
0.00974999997764826 0.0488499967083335 0.00564999974519014 16 0.0881806015968323 0.315442800521851 -0.153708383440971 0.361809700727463
0.0125500000193715 0.0488499967083335 0.00564999974519014 16 0.0519932992756367 0.410693287849426 -0.116603367030621 0.430079787969589
0.0153500000610948 0.0488499967083335 0.00564999974519014 16 0.0141124501824379 0.428201198577881 -0.0733962804079056 0.434675097465515
0.018150000102818 0.0488499967083335 0.00564999974519014 16 -0.0244935005903244 0.376438051462173 -0.0217377785593271 0.377859860658646
0.0209500001445413 0.0488499967083335 0.00564999974519014 16 -0.0566502436995506 0.28372523188591 0.0284572616219521 0.290721654891968
0.0237500001862645 0.0488499967083335 0.00564999974519014 16 -0.0805691629648209 0.177050888538361 0.0771568939089775 0.209264412522316
0.0265500002279878 0.0488499967083335 0.00564999974519014 16 -0.0931930392980576 0.0827820748090744 0.120194420218468 0.173160374164581
0.029350000269711 0.0488499967083335 0.00564999974519014 16 -0.0997530296444893 0.010433335788548 0.155655443668365 0.185170561075211
0.0321500003114343 0.0488499967083335 0.00564999974519014 16 -0.101535566151142 -0.0341178514063358 0.180368810892105 0.209777042269707
0.0349500003531575 0.0488499967083335 0.00564999974519014 16 -0.102380834519863 -0.0516437143087387 0.189649507403374 0.221620947122574
-0.0350500006899238 0.0460499966666102 0.00564999974519014 16 -0.0333779193460941 0.302149295806885 0.144357115030289 0.336522310972214
-0.0322500006482005 0.0460499966666102 0.00564999974519014 16 -0.0514260865747929 0.273377001285553 0.154728248715401 0.318308740854263
-0.0294500006064773 0.0460499966666102 0.00564999974519014 16 -0.0882261022925377 0.20916211605072 0.173250123858452 0.285566538572311
-0.026650000564754 0.0460499966666102 0.00564999974519014 16 -0.12322948127985 0.126550197601318 0.18305703997612 0.254382252693176
-0.0238500005230308 0.0460499966666102 0.00564999974519014 16 -0.148101821541786 0.0424482524394989 0.183465048670769 0.239573433995247
-0.0210500004813075 0.0460499966666102 0.00564999974519014 16 -0.157567158341408 -0.0349331796169281 0.172938004136086 0.236548706889153
-0.0182500004395843 0.0460499966666102 0.00564999974519014 16 -0.154460787773132 -0.100949786603451 0.156283587217331 0.241813063621521
-0.015450000397861 0.0460499966666102 0.00564999974519014 16 -0.135266557335854 -0.161898046731949 0.125125870108604 0.245284542441368
-0.0126500003561378 0.0460499966666102 0.00564999974519014 16 -0.0971952080726624 -0.217715993523598 0.0723128691315651 0.249151185154915
-0.0098500003144145 0.0460499966666102 0.00564999974519014 16 -0.0404236987233162 -0.269844621419907 -0.00241955439560115 0.272866368293762
-0.00705000027269125 0.0460499966666102 0.00564999974519014 16 0.0290362350642681 -0.302220582962036 -0.0914681553840637 0.317091166973114
-0.004250000230968 0.0460499966666102 0.00564999974519014 16 0.0957114994525909 -0.301323294639587 -0.172381266951561 0.360099613666534
-0.00145000018924474 0.0460499966666102 0.00564999974519014 16 0.149702906608582 -0.252196133136749 -0.235075816512108 0.37586498260498
0.0013499998524785 0.0460499966666102 0.00564999974519014 16 0.178026154637337 -0.155270501971245 -0.265170514583588 0.355130463838577
0.00414999989420176 0.0460499966666102 0.00564999974519014 16 0.184094041585922 -0.0218717847019434 -0.273962825536728 0.330793917179108
0.006949999935925 0.0460499966666102 0.00564999974519014 16 0.163689613342285 0.122957676649094 -0.255125343799591 0.327111333608627
0.00974999997764826 0.0460499966666102 0.00564999974519014 16 0.12702140212059 0.248712763190269 -0.221513092517853 0.356455504894257
0.0125500000193715 0.0460499966666102 0.00564999974519014 16 0.0730590671300888 0.328173071146011 -0.162286967039108 0.373325914144516
0.0153500000610948 0.0460499966666102 0.00564999974519014 16 0.0129862381145358 0.349717915058136 -0.0911477282643318 0.36163404583931
0.018150000102818 0.0460499966666102 0.00564999974519014 16 -0.0500743836164474 0.31791678071022 -0.00810806266963482 0.321938306093216
0.0209500001445413 0.0460499966666102 0.00564999974519014 16 -0.102295055985451 0.251512914896011 0.0680199414491653 0.279910236597061
0.0237500001862645 0.0460499966666102 0.00564999974519014 16 -0.138386532664299 0.169591397047043 0.13223047554493 0.255728304386139
0.0265500002279878 0.0460499966666102 0.00564999974519014 16 -0.152906760573387 0.0895117223262787 0.177896022796631 0.251077324151993
0.029350000269711 0.0460499966666102 0.00564999974519014 16 -0.153865739703178 0.0209835395216942 0.205181121826172 0.257321327924728
0.0321500003114343 0.0460499966666102 0.00564999974519014 16 -0.148198857903481 -0.0269152764230967 0.219514831900597 0.266221880912781
0.0349500003531575 0.0460499966666102 0.00564999974519014 16 -0.144728094339371 -0.0475143790245056 0.221856653690338 0.269117474555969
-0.0350500006899238 0.043249996624887 0.00564999974519014 16 -0.0165264997631311 0.231547117233276 0.130788862705231 0.266444951295853
-0.0322500006482005 0.043249996624887 0.00564999974519014 16 -0.0350622050464153 0.209887132048607 0.142595052719116 0.256154865026474
-0.0294500006064773 0.043249996624887 0.00564999974519014 16 -0.0725679323077202 0.162309676408768 0.165037766098976 0.242586076259613
-0.026650000564754 0.043249996624887 0.00564999974519014 16 -0.109228789806366 0.0981678739190102 0.180516764521599 0.232710465788841
-0.0238500005230308 0.043249996624887 0.00564999974519014 16 -0.135411858558655 0.0308947451412678 0.186079189181328 0.232198879122734
-0.0210500004813075 0.043249996624887 0.00564999974519014 16 -0.147452682256699 -0.0347505807876587 0.180685669183731 0.235790610313416
-0.0182500004395843 0.043249996624887 0.00564999974519014 16 -0.146627873182297 -0.091014064848423 0.166865780949593 0.240057244896889
-0.015450000397861 0.043249996624887 0.00564999974519014 16 -0.130308121442795 -0.141769662499428 0.137998774647713 0.236901894211769
-0.0126500003561378 0.043249996624887 0.00564999974519014 16 -0.0953811630606651 -0.182740077376366 0.0849277973175049 0.22294445335865
-0.0098500003144145 0.043249996624887 0.00564999974519014 16 -0.0426742881536484 -0.215777307748795 0.00851372536271811 0.220121383666992
-0.00705000027269125 0.043249996624887 0.00564999974519014 16 0.0224433876574039 -0.229933798313141 -0.0832611247897148 0.245572134852409
-0.004250000230968 0.043249996624887 0.00564999974519014 16 0.0861027166247368 -0.220569595694542 -0.167077302932739 0.289792090654373
-0.00145000018924474 0.043249996624887 0.00564999974519014 16 0.1382205337286 -0.179573476314545 -0.231863215565681 0.324209958314896
0.0013499998524785 0.043249996624887 0.00564999974519014 16 0.16641902923584 -0.109422415494919 -0.265172123908997 0.331639587879181
0.00414999989420176 0.043249996624887 0.00564999974519014 16 0.173556253314018 -0.0157439764589071 -0.278709709644318 0.328707695007324
0.006949999935925 0.043249996624887 0.00564999974519014 16 0.156210690736771 0.0859639421105385 -0.264971107244492 0.31937637925148
0.00974999997764826 0.043249996624887 0.00564999974519014 16 0.123932130634785 0.177277356386185 -0.235240608453751 0.319569379091263
0.0125500000193715 0.043249996624887 0.00564999974519014 16 0.0723612010478973 0.23986342549324 -0.17513644695282 0.305685102939606
0.0153500000610948 0.043249996624887 0.00564999974519014 16 0.0118190608918667 0.264463067054749 -0.100538313388824 0.283175498247147
0.018150000102818 0.043249996624887 0.00564999974519014 16 -0.0555086545646191 0.252598762512207 -0.0106970379129052 0.258846998214722
0.0209500001445413 0.043249996624887 0.00564999974519014 16 -0.111894883215427 0.213061988353729 0.0725007653236389 0.251340866088867
0.0237500001862645 0.043249996624887 0.00564999974519014 16 -0.150207579135895 0.157789498567581 0.142021924257278 0.260057806968689
0.0265500002279878 0.043249996624887 0.00564999974519014 16 -0.163744658231735 0.095642976462841 0.187422305345535 0.266621500253677
0.029350000269711 0.043249996624887 0.00564999974519014 16 -0.161573603749275 0.0368097648024559 0.20837613940239 0.266236007213593
0.0321500003114343 0.043249996624887 0.00564999974519014 16 -0.1529221534729 -0.00886568985879421 0.21439117193222 0.263490706682205
0.0349500003531575 0.043249996624887 0.00564999974519014 16 -0.148292034864426 -0.0287553109228611 0.213290825486183 0.2613625228405
-0.0350500006899238 0.0404499965831637 0.00564999974519014 16 0.00526972813531756 0.168685078620911 0.0950780659914017 0.193706646561623
-0.0322500006482005 0.0404499965831637 0.00564999974519014 16 -0.00982776749879122 0.152760818600655 0.106356643140316 0.186397925019264
-0.0294500006064773 0.0404499965831637 0.00564999974519014 16 -0.040379174053669 0.117472499608994 0.128069505095482 0.178415417671204
-0.026650000564754 0.0404499965831637 0.00564999974519014 16 -0.0708214417099953 0.0683862045407295 0.144026681780815 0.174459263682365
-0.0238500005230308 0.0404499965831637 0.00564999974519014 16 -0.0931306555867195 0.0158937051892281 0.151384741067886 0.178446814417839
-0.0210500004813075 0.0404499965831637 0.00564999974519014 16 -0.104759030044079 -0.0370196923613548 0.149284899234772 0.186093777418137
-0.0182500004395843 0.0404499965831637 0.00564999974519014 16 -0.106162406504154 -0.0825813263654709 0.139905482530594 0.19407132267952
-0.015450000397861 0.0404499965831637 0.00564999974519014 16 -0.0946064665913582 -0.123259693384171 0.116269193589687 0.194066628813744
-0.0126500003561378 0.0404499965831637 0.00564999974519014 16 -0.0683937147259712 -0.152817398309708 0.0710883587598801 0.181891202926636
-0.0098500003144145 0.0404499965831637 0.00564999974519014 16 -0.0271670818328857 -0.172943934798241 0.0043219574727118 0.175118058919907
-0.00705000027269125 0.0404499965831637 0.00564999974519014 16 0.0232415962964296 -0.176010891795158 -0.0743153542280197 0.192465007305145
-0.004250000230968 0.0404499965831637 0.00564999974519014 16 0.0729823336005211 -0.162270754575729 -0.145900949835777 0.230098471045494
-0.00145000018924474 0.0404499965831637 0.00564999974519014 16 0.111566804349422 -0.128652483224869 -0.198273777961731 0.261363923549652
0.0013499998524785 0.0404499965831637 0.00564999974519014 16 0.130733236670494 -0.0786329582333565 -0.224392130970955 0.271341383457184
0.00414999989420176 0.0404499965831637 0.00564999974519014 16 0.133902028203011 -0.0153231313452125 -0.23483495414257 0.270761907100677
0.006949999935925 0.0404499965831637 0.00564999974519014 16 0.120541669428349 0.0535511523485184 -0.225481152534485 0.261227428913116
0.00974999997764826 0.0404499965831637 0.00564999974519014 16 0.097785972058773 0.118131510913372 -0.204831883311272 0.255877405405045
0.0125500000193715 0.0404499965831637 0.00564999974519014 16 0.0585556961596012 0.167726427316666 -0.15767976641655 0.237537011504173
0.0153500000610948 0.0404499965831637 0.00564999974519014 16 0.00897359289228916 0.195104911923409 -0.0961018279194832 0.217674091458321
0.018150000102818 0.0404499965831637 0.00564999974519014 16 -0.0495762676000595 0.199006825685501 -0.0177576802670956 0.205856397747993
0.0209500001445413 0.0404499965831637 0.00564999974519014 16 -0.0998366624116898 0.180596545338631 0.0569059625267982 0.214057847857475
0.0237500001862645 0.0404499965831637 0.00564999974519014 16 -0.133792668581009 0.145821332931519 0.119776755571365 0.231324046850204
0.0265500002279878 0.0404499965831637 0.00564999974519014 16 -0.144850969314575 0.0985502153635025 0.158373460173607 0.236169651150703
0.029350000269711 0.0404499965831637 0.00564999974519014 16 -0.141631513834 0.0499485284090042 0.17326807975769 0.229294940829277
0.0321500003114343 0.0404499965831637 0.00564999974519014 16 -0.132416516542435 0.00955088250339031 0.173189103603363 0.21821965277195
0.0349500003531575 0.0404499965831637 0.00564999974519014 16 -0.127880871295929 -0.00825338624417782 0.170029252767563 0.212912142276764
-0.0350500006899238 0.0376499965414405 0.00564999974519014 16 0.0155420852825046 0.123754069209099 0.0614604689180851 0.139046803116798
-0.0322500006482005 0.0376499965414405 0.00564999974519014 16 0.00479238154366612 0.110346399247646 0.0706090182065964 0.131091296672821
-0.0294500006064773 0.0376499965414405 0.00564999974519014 16 -0.0168446395546198 0.0808293372392654 0.088784359395504 0.121242672204971
-0.026650000564754 0.0376499965414405 0.00564999974519014 16 -0.0382818058133125 0.0410780198872089 0.102331288158894 0.11672443151474
-0.0238500005230308 0.0376499965414405 0.00564999974519014 16 -0.0541454143822193 -0.000428012863267213 0.109881304204464 0.122498206794262
-0.0210500004813075 0.0376499965414405 0.00564999974519014 16 -0.0624175779521465 -0.0416762642562389 0.10850615799427 0.131933510303497
-0.0182500004395843 0.0376499965414405 0.00564999974519014 16 -0.06386598944664 -0.0774458348751068 0.101849257946014 0.143003463745117
-0.015450000397861 0.0376499965414405 0.00564999974519014 16 -0.0555387176573277 -0.109611824154854 0.0823843032121658 0.147940784692764
-0.0126500003561378 0.0376499965414405 0.00564999974519014 16 -0.0373234823346138 -0.131848305463791 0.0473013855516911 0.144963577389717
-0.0098500003144145 0.0376499965414405 0.00564999974519014 16 -0.00738663971424103 -0.145067557692528 -0.00611854577437043 0.145384311676025
-0.00705000027269125 0.0376499965414405 0.00564999974519014 16 0.0278996378183365 -0.144090190529823 -0.0663708746433258 0.161075964570045
-0.004250000230968 0.0376499965414405 0.00564999974519014 16 0.0624144971370697 -0.130928173661232 -0.120473332703114 0.188551262021065