TITLE="DynamicStudio Exported Data"
VARIABLES= "X (m)[m]" "Y (m)[m]" "Z (m)[m]" "Status[-]" "U[-]" "V[-]" "W[-]" "Length[-]"
ZONE T="DynamicStudio Data" F=POINT
-0.0350500006899238 0.0600499968752265 0.00564999974519014 16 -0.408457547426224 0.199119284749031 0.642685413360596 0.787102699279785
-0.0322500006482005 0.0600499968752265 0.00564999974519014 16 -0.370424509048462 0.232813462615013 0.593695402145386 0.737489402294159
-0.0294500006064773 0.0600499968752265 0.00564999974519014 16 -0.281985372304916 0.297212362289429 0.481481283903122 0.632198691368103
-0.026650000564754 0.0600499968752265 0.00564999974519014 16 -0.163173079490662 0.339165091514587 0.327130705118179 0.498671144247055
-0.0238500005230308 0.0600499968752265 0.00564999974519014 16 -0.0452431552112103 0.337476789951324 0.177363336086273 0.383920937776566
-0.0210500004813075 0.0600499968752265 0.00564999974519014 16 0.0538692995905876 0.290596902370453 0.0534190163016319 0.300336569547653
-0.0182500004395843 0.0600499968752265 0.00564999974519014 16 0.121840417385101 0.222007840871811 -0.0253020841628313 0.254504948854446
-0.015450000397861 0.0600499968752265 0.00564999974519014 16 0.163542494177818 0.143590405583382 -0.0723214522004128 0.229335442185402
-0.0126500003561378 0.0600499968752265 0.00564999974519014 16 0.184268802404404 0.0616863705217838 -0.0977022051811218 0.217499241232872
-0.0098500003144145 0.0600499968752265 0.00564999974519014 16 0.190852895379066 -0.0220572333782911 -0.10985042154789 0.221310779452324
-0.00705000027269125 0.0600499968752265 0.00564999974519014 16 0.18416140973568 -0.106745474040508 -0.115302532911301 0.242084071040154
-0.004250000230968 0.0600499968752265 0.00564999974519014 16 0.161693423986435 -0.187366664409637 -0.108772218227386 0.270337611436844
-0.00145000018924474 0.0600499968752265 0.00564999974519014 16 0.118781089782715 -0.261944591999054 -0.0916933640837669 0.301880091428757
0.0013499998524785 0.0600499968752265 0.00564999974519014 16 0.0525989383459091 -0.3198222219944 -0.0518719218671322 0.32824319601059
0.00414999989420176 0.0600499968752265 0.00564999974519014 16 -0.0358982048928738 -0.347916066646576 0.0136510012671351 0.350029438734055
0.006949999935925 0.0600499968752265 0.00564999974519014 16 -0.132546737790108 -0.328019827604294 0.0979076027870178 0.367085188627243
0.00974999997764826 0.0600499968752265 0.00564999974519014 16 -0.221073716878891 -0.251558125019073 0.186088591814041 0.383124053478241
0.0125500000193715 0.0600499968752265 0.00564999974519014 16 -0.277806639671326 -0.123403936624527 0.250236064195633 0.393729776144028
0.0153500000610948 0.0600499968752265 0.00564999974519014 16 -0.288799196481705 0.030533354729414 0.275653690099716 0.400402575731277
0.018150000102818 0.0600499968752265 0.00564999974519014 16 -0.248665019869804 0.17835046350956 0.250623047351837 0.395544022321701
0.0209500001445413 0.0600499968752265 0.00564999974519014 16 -0.168905779719353 0.284973949193954 0.185993060469627 0.379911482334137
0.0237500001862645 0.0600499968752265 0.00564999974519014 16 -0.0698340460658073 0.336854249238968 0.0998271852731705 0.358208119869232
0.0265500002279878 0.0600499968752265 0.00564999974519014 16 0.025084313005209 0.330945253372192 0.0147535922005773 0.332222312688828
0.029350000269711 0.0600499968752265 0.00564999974519014 16 0.103442288935184 0.289212346076965 -0.0536934286355972 0.311812549829483
0.0321500003114343 0.0600499968752265 0.00564999974519014 16 0.153800636529922 0.238345265388489 -0.0981636121869087 0.300165265798569
0.0349500003531575 0.0600499968752265 0.00564999974519014 16 0.17487958073616 0.213312759995461 -0.115455523133278 0.29902371764183
-0.0350500006899238 0.0572499968335032 0.00564999974519014 16 -0.353479981422424 0.215952426195145 0.590661823749542 0.721432566642761
-0.0322500006482005 0.0572499968335032 0.00564999974519014 16 -0.319975674152374 0.25384134054184 0.546182453632355 0.68200820684433
-0.0294500006064773 0.0572499968335032 0.00564999974519014 16 -0.244403019547462 0.323857933282852 0.446900427341461 0.603603184223175
-0.026650000564754 0.0572499968335032 0.00564999974519014 16 -0.143977433443069 0.368273258209229 0.309727251529694 0.502280473709106
-0.0238500005230308 0.0572499968335032 0.00564999974519014 16 -0.045428529381752 0.363965302705765 0.17784970998764 0.407633423805237
-0.0210500004813075 0.0572499968335032 0.00564999974519014 16 0.0364699736237526 0.310214251279831 0.0692826136946678 0.319942206144333
-0.0182500004395843 0.0572499968335032 0.00564999974519014 16 0.0922794565558434 0.234048783779144 0.00270330719649792 0.251598179340363
-0.015450000397861 0.0572499968335032 0.00564999974519014 16 0.126790851354599 0.148718610405922 -0.0367512404918671 0.198856219649315
-0.0126500003561378 0.0572499968335032 0.00564999974519014 16 0.14500404894352 0.0624124966561794 -0.0580007620155811 0.168183177709579
-0.0098500003144145 0.0572499968335032 0.00564999974519014 16 0.151696249842644 -0.024705832824111 -0.0695574209094048 0.168702006340027
-0.00705000027269125 0.0572499968335032 0.00564999974519014 16 0.147443354129791 -0.112133450806141 -0.0758477449417114 0.200165763497353
-0.004250000230968 0.0572499968335032 0.00564999974519014 16 0.129644557833672 -0.197641715407372 -0.0734814330935478 0.247526720166206
-0.00145000018924474 0.0572499968335032 0.00564999974519014 16 0.0950131341814995 -0.278173416852951 -0.0635488480329514 0.300743073225021
0.0013499998524785 0.0572499968335032 0.00564999974519014 16 0.0408370979130268 -0.343282669782639 -0.0358320139348507 0.347555190324783
0.00414999989420176 0.0572499968335032 0.00564999974519014 16 -0.0312831811606884 -0.376264721155167 0.0135938636958599 0.377807587385178
0.006949999935925 0.0572499968335032 0.00564999974519014 16 -0.110898487269878 -0.357451170682907 0.0803544074296951 0.382788002490997
0.00974999997764826 0.0572499968335032 0.00564999974519014 16 -0.183723539113998 -0.27630490064621 0.151554852724075 0.364784330129623
0.0125500000193715 0.0572499968335032 0.00564999974519014 16 -0.230610206723213 -0.138665035367012 0.203545793890953 0.337401777505875
0.0153500000610948 0.0572499968335032 0.00564999974519014 16 -0.23897023499012 0.0278936084359884 0.223194479942322 0.328177690505981
0.018150000102818 0.0572499968335032 0.00564999974519014 16 -0.205120787024498 0.187965035438538 0.201153442263603 0.343319237232208
0.0209500001445413 0.0572499968335032 0.00564999974519014 16 -0.138494491577148 0.304345726966858 0.147515118122101 0.365469217300415
0.0237500001862645 0.0572499968335032 0.00564999974519014 16 -0.0568685010075569 0.360247701406479 0.0779500380158424 0.372945874929428
0.0265500002279878 0.0572499968335032 0.00564999974519014 16 0.0221704449504614 0.353603392839432 0.00988771487027407 0.354435682296753
0.029350000269711 0.0572499968335032 0.00564999974519014 16 0.0873473957180977 0.306315839290619 -0.0442741177976131 0.321588486433029
0.0321500003114343 0.0572499968335032 0.00564999974519014 16 0.130333766341209 0.249827772378922 -0.0805913209915161 0.293079793453217
0.0349500003531575 0.0572499968335032 0.00564999974519014 16 0.14806067943573 0.220686972141266 -0.0945255011320114 0.28206342458725
-0.0350500006899238 0.05444999679178 0.00564999974519014 16 -0.213628172874451 0.244007006287575 0.44749128818512 0.552652597427368
-0.0322500006482005 0.05444999679178 0.00564999974519014 16 -0.194449350237846 0.287866324186325 0.417715489864349 0.54328978061676
-0.0294500006064773 0.05444999679178 0.00564999974519014 16 -0.151689529418945 0.367029577493668 0.35190349817276 0.530618965625763
-0.026650000564754 0.05444999679178 0.00564999974519014 16 -0.0959052890539169 0.415668219327927 0.258395165205002 0.498744398355484
-0.0238500005230308 0.05444999679178 0.00564999974519014 16 -0.0437166318297386 0.407238692045212 0.171652182936668 0.444093436002731
-0.0210500004813075 0.05444999679178 0.00564999974519014 16 -0.00183835939969867 0.342565685510635 0.100268557667732 0.356943160295486
-0.0182500004395843 0.05444999679178 0.00564999974519014 16 0.0257729440927505 0.253979623317719 0.0603765845298767 0.262326568365097
-0.015450000397861 0.05444999679178 0.00564999974519014 16 0.0433833375573158 0.157448798418045 0.0366031639277935 0.167367950081825
-0.0126500003561378 0.05444999679178 0.00564999974519014 16 0.0541704520583153 0.0631258264183998 0.0241382513195276 0.0866138711571693
-0.0098500003144145 0.05444999679178 0.00564999974519014 16 0.0599528029561043 -0.0304068475961685 0.0150965750217438 0.0688971802592278
-0.00705000027269125 0.05444999679178 0.00564999974519014 16 0.0606430470943451 -0.122909434139729 0.00737737445160747 0.137254267930984
-0.004250000230968 0.05444999679178 0.00564999974519014 16 0.0537846423685551 -0.215082585811615 0.00149480509571731 0.221710488200188
-0.00145000018924474 0.05444999679178 0.00564999974519014 16 0.0388928540050983 -0.303320288658142 -0.00489294808357954 0.305842757225037
0.0013499998524785 0.05444999679178 0.00564999974519014 16 0.0135575039312243 -0.377334088087082 -0.00407497677952051 0.377599537372589
0.00414999989420176 0.05444999679178 0.00564999974519014 16 -0.0205548331141472 -0.416744023561478 0.00875106081366539 0.417342394590378
0.006949999935925 0.05444999679178 0.00564999974519014 16 -0.0598154067993164 -0.398760288953781 0.0352071188390255 0.404755711555481
0.00974999997764826 0.05444999679178 0.00564999974519014 16 -0.0956207290291786 -0.310377240180969 0.0669761151075363 0.331606924533844
0.0125500000193715 0.05444999679178 0.00564999974519014 16 -0.118310324847698 -0.158137366175652 0.0891451239585876 0.216683208942413
0.0153500000610948 0.05444999679178 0.00564999974519014 16 -0.120156459510326 0.0265091899782419 0.0933642163872719 0.154457718133926
0.018150000102818 0.05444999679178 0.00564999974519014 16 -0.100801512598991 0.203968569636345 0.0773580297827721 0.240308940410614
0.0209500001445413 0.05444999679178 0.00564999974519014 16 -0.0651373192667961 0.334820240736008 0.0511933974921703 0.344917714595795
0.0237500001862645 0.05444999679178 0.00564999974519014 16 -0.0241999588906765 0.39893627166748 0.0242749992758036 0.400406152009964
0.0265500002279878 0.05444999679178 0.00564999974519014 16 0.0154879484325647 0.393719375133514 0.00158884807024151 0.394027084112167
0.029350000269711 0.05444999679178 0.00564999974519014 16 0.047822792083025 0.340170204639435 -0.0156364049762487 0.343871027231216
0.0321500003114343 0.05444999679178 0.00564999974519014 16 0.070757232606411 0.275804430246353 -0.0293360613286495 0.286243379116058
0.0349500003531575 0.05444999679178 0.00564999974519014 16 0.0800276249647141 0.242016807198524 -0.0344255678355694 0.257219135761261
-0.0350500006899238 0.0516499967500567 0.00564999974519014 16 -0.0381159745156765 0.254585951566696 0.252591341733932 0.360651105642319
-0.0322500006482005 0.0516499967500567 0.00564999974519014 16 -0.034939169883728 0.300132423639297 0.239880874752998 0.385801821947098
-0.0294500006064773 0.0516499967500567 0.00564999974519014 16 -0.0316526368260384 0.380992561578751 0.2156772762537 0.43894636631012
-0.026650000564754 0.0516499967500567 0.00564999974519014 16 -0.0303253140300512 0.431422531604767 0.178917154669762 0.468034565448761
-0.0238500005230308 0.0516499967500567 0.00564999974519014 16 -0.0342546291649342 0.42159903049469 0.148802027106285 0.448398441076279
-0.0210500004813075 0.0516499967500567 0.00564999974519014 16 -0.0408833548426628 0.354014664888382 0.125358253717422 0.377773106098175
-0.0182500004395843 0.0516499967500567 0.00564999974519014 16 -0.0480845347046852 0.260043859481812 0.119627602398396 0.290251106023788
-0.015450000397861 0.0516499967500567 0.00564999974519014 16 -0.0521436482667923 0.158753082156181 0.11855112016201 0.204880133271217
-0.0126500003561378 0.0516499967500567 0.00564999974519014 16 -0.0520457327365875 0.0613867118954659 0.11943008005619 0.144016087055206
-0.0098500003144145 0.0516499967500567 0.00564999974519014 16 -0.0487640835344791 -0.03286462277174 0.115129850804806 0.129278391599655
-0.00705000027269125 0.0516499967500567 0.00564999974519014 16 -0.0433174297213554 -0.125357002019882 0.105018302798271 0.169173344969749
-0.004250000230968 0.0516499967500567 0.00564999974519014 16 -0.0373798049986362 -0.218781515955925 0.0878646150231361 0.238710686564445
-0.00145000018924474 0.0516499967500567 0.00564999974519014 16 -0.0285135563462973 -0.309381276369095 0.0599587671458721 0.316425114870071
0.0013499998524785 0.0516499967500567 0.00564999974519014 16 -0.0177491493523121 -0.385093033313751 0.0271069314330816 0.386453688144684
0.00414999989420176 0.0516499967500567 0.00564999974519014 16 -0.0043666735291481 -0.424864947795868 -0.00601140735670924 0.424929916858673
0.006949999935925 0.0516499967500567 0.00564999974519014 16 0.00691957678645849 -0.404740929603577 -0.0302615277469158 0.405929625034332
0.00974999997764826 0.0516499967500567 0.00564999974519014 16 0.0163457803428173 -0.31467992067337 -0.0486462712287903 0.318837106227875
0.0125500000193715 0.0516499967500567 0.00564999974519014 16 0.0227549374103546 -0.161191239953041 -0.0631468147039413 0.174607917666435
0.0153500000610948 0.0516499967500567 0.00564999974519014 16 0.0285324528813362 0.0240472350269556 -0.0762600600719452 0.0848997458815575
0.018150000102818 0.0516499967500567 0.00564999974519014 16 0.0302326120436192 0.203907370567322 -0.0803539901971817 0.221244186162949
0.0209500001445413 0.0516499967500567 0.00564999974519014 16 0.0273732226341963 0.340247601270676 -0.0686259940266609 0.348177045583725
0.0237500001862645 0.0516499967500567 0.00564999974519014 16 0.0173198170959949 0.410569995641708 -0.0400907807052135 0.412886142730713
0.0265500002279878 0.0516499967500567 0.00564999974519014 16 0.00637899339199066 0.410317599773407 -0.00500346021726727 0.410397678613663
0.029350000269711 0.0516499967500567 0.00564999974519014 16 -0.00330449664033949 0.357996493577957 0.0235905945301056 0.358788132667542
0.0321500003114343 0.0516499967500567 0.00564999974519014 16 -0.00768642127513885 0.292811840772629 0.0395051427185535 0.295564740896225
0.0349500003531575 0.0516499967500567 0.00564999974519014 16 -0.00927182473242283 0.257722795009613 0.044109046459198 0.26163449883461
-0.0350500006899238 0.0488499967083335 0.00564999974519014 16 0.116837896406651 0.236093536019325 0.0597276166081429 0.270108580589294
-0.0322500006482005 0.0488499967083335 0.00564999974519014 16 0.105793192982674 0.277690351009369 0.0632913857698441 0.303825497627258
-0.0294500006064773 0.0488499967083335 0.00564999974519014 16 0.076265886425972 0.350584506988525 0.0765127539634705 0.366851717233658
-0.026650000564754 0.0488499967083335 0.00564999974519014 16 0.0330758653581142 0.397863358259201 0.0917033031582832 0.409632474184036
-0.0238500005230308 0.0488499967083335 0.00564999974519014 16 -0.0160214602947235 0.389279901981354 0.111901953816414 0.40536105632782
-0.0210500004813075 0.0488499967083335 0.00564999974519014 16 -0.0621421709656715 0.328997135162354 0.131480172276497 0.359705150127411
-0.0182500004395843 0.0488499967083335 0.00564999974519014 16 -0.0987914428114891 0.241801664233208 0.154429510235786 0.303440719842911
-0.015450000397861 0.0488499967083335 0.00564999974519014 16 -0.122715413570404 0.147352874279022 0.173061221837997 0.258306264877319
-0.0126500003561378 0.0488499967083335 0.00564999974519014 16 -0.133937656879425 0.0551002733409405 0.185744941234589 0.23553454875946
-0.0098500003144145 0.0488499967083335 0.00564999974519014 16 -0.134119376540184 -0.0332083739340305 0.186200574040413 0.231865182518959
-0.00705000027269125 0.0488499967083335 0.00564999974519014 16 -0.125109598040581 -0.118879094719887 0.173464745283127 0.244693011045456
-0.004250000230968 0.0488499967083335 0.00564999974519014 16 -0.107729703187943 -0.203443914651871 0.145780086517334 0.272482931613922
-0.00145000018924474 0.0488499967083335 0.00564999974519014 16 -0.0789010599255562 -0.284272193908691 0.0997444912791252 0.311424165964127
0.0013499998524785 0.0488499967083335 0.00564999974519014 16 -0.0386385917663574 -0.349072188138962 0.0405654683709145 0.353539079427719
0.00414999989420176 0.0488499967083335 0.00564999974519014 16 0.0120000783354044 -0.381104171276093 -0.0276128761470318 0.382291615009308
0.006949999935925 0.0488499967083335 0.00564999974519014 16 0.0634397566318512 -0.358581751585007 -0.0920625627040863 0.375607490539551
0.00974999997764826 0.0488499967083335 0.00564999974519014 16 0.109293922781944 -0.276702791452408 -0.152258947491646 0.334204107522964
0.0125500000193715 0.0488499967083335 0.00564999974519014 16 0.139667853713036 -0.140256777405739 -0.198441341519356 0.280282080173492
0.0153500000610948 0.0488499967083335 0.00564999974519014 16 0.151711940765381 0.0223776791244745 -0.2274219840765 0.274295508861542
0.018150000102818 0.0488499967083335 0.00564999974519014 16 0.138540267944336 0.182655811309814 -0.22128202021122 0.318625599145889
0.0209500001445413 0.0488499967083335 0.00564999974519014 16 0.104064546525478 0.308928340673447 -0.177315533161163 0.371088862419128
0.0237500001862645 0.0488499967083335 0.00564999974519014 16 0.0518571510910988 0.380542546510696 -0.0993339717388153 0.396697670221329
0.0265500002279878 0.0488499967083335 0.00564999974519014 16 -0.00277918204665184 0.38972195982933 -0.0104536721482873 0.389872044324875
0.029350000269711 0.0488499967083335 0.00564999974519014 16 -0.0505453124642372 0.349405437707901 0.0642296299338341 0.358837604522705
0.0321500003114343 0.0488499967083335 0.00564999974519014 16 -0.0812429115176201 0.29386630654335 0.112481333315372 0.324976712465286
0.0349500003531575 0.0488499967083335 0.00564999974519014 16 -0.0934018269181252 0.263228088617325 0.129410430788994 0.307831108570099
-0.0350500006899238 0.0460499966666102 0.00564999974519014 16 0.193688914179802 0.197721213102341 -0.0646106973290443 0.284224599599838
-0.0322500006482005 0.0460499966666102 0.00564999974519014 16 0.177032336592674 0.229607239365578 -0.0515944324433804 0.294485867023468
-0.0294500006064773 0.0460499966666102 0.00564999974519014 16 0.135036647319794 0.285485833883286 -0.0177685208618641 0.316311210393906
-0.026650000564754 0.0460499966666102 0.00564999974519014 16 0.0741317793726921 0.323577672243118 0.0268110651522875 0.333041816949844
-0.0238500005230308 0.0460499966666102 0.00564999974519014 16 0.00656014168635011 0.318356335163116 0.0743832066655159 0.3269964158535
-0.0210500004813075 0.0460499966666102 0.00564999974519014 16 -0.0566791743040085 0.27264991402626 0.117508381605148 0.302256047725677
-0.0182500004395843 0.0460499966666102 0.00564999974519014 16 -0.107179574668407 0.202002763748169 0.156066745519638 0.276856303215027
-0.015450000397861 0.0460499966666102 0.00564999974519014 16 -0.141536012291908 0.123311169445515 0.186928883194923 0.264916002750397
-0.0126500003561378 0.0460499966666102 0.00564999974519014 16 -0.15973299741745 0.0441724695265293 0.207827642560005 0.265816032886505
-0.0098500003144145 0.0460499966666102 0.00564999974519014 16 -0.162437304854393 -0.0312425550073385 0.21126551926136 0.268319010734558
-0.00705000027269125 0.0460499966666102 0.00564999974519014 16 -0.152250245213509 -0.104011230170727 0.195814907550812 0.26896458864212
-0.004250000230968 0.0460499966666102 0.00564999974519014 16 -0.12926322221756 -0.173669949173927 0.160235181450844 0.269342809915543
-0.00145000018924474 0.0460499966666102 0.00564999974519014 16 -0.0923943519592285 -0.238011181354523 0.105502665042877 0.276255041360855
0.0013499998524785 0.0460499966666102 0.00564999974519014 16 -0.0405039861798286 -0.285468995571136 0.0359982661902905 0.290566682815552
0.00414999989420176 0.0460499966666102 0.00564999974519014 16 0.0239628590643406 -0.305188864469528 -0.0451527126133442 0.309440195560455
0.006949999935925 0.0460499966666102 0.00564999974519014 16 0.0914914309978485 -0.281471759080887 -0.12753926217556 0.322278290987015
0.00974999997764826 0.0460499966666102 0.00564999974519014 16 0.152515769004822 -0.215828016400337 -0.208233401179314 0.336457937955856
0.0125500000193715 0.0460499966666102 0.00564999974519014 16 0.193438798189163 -0.110846020281315 -0.270278364419937 0.350365251302719
0.0153500000610948 0.0460499966666102 0.00564999974519014 16 0.208233088254929 0.0130102131515741 -0.305548518896103 0.369986712932587
0.018150000102818 0.0460499966666102 0.00564999974519014 16 0.18784986436367 0.139787390828133 -0.290872305631638 0.373409688472748
0.0209500001445413 0.0460499966666102 0.00564999974519014 16 0.138547390699387 0.245580568909645 -0.228931769728661 0.36320099234581
0.0237500001862645 0.0460499966666102 0.00564999974519014 16 0.0660513490438461 0.313178837299347 -0.126028746366501 0.343986928462982
0.0265500002279878 0.0460499966666102 0.00564999974519014 16 -0.0101100066676736 0.331789940595627 -0.01145875826478 0.332141667604446
0.029350000269711 0.0460499966666102 0.00564999974519014 16 -0.0777617990970612 0.309162795543671 0.0875437334179878 0.330594062805176
0.0321500003114343 0.0460499966666102 0.00564999974519014 16 -0.123444356024265 0.270875006914139 0.154634431004524 0.33544534444809
0.0349500003531575 0.0460499966666102 0.00564999974519014 16 -0.141963258385658 0.248779267072678 0.179014354944229 0.337773352861404
-0.0350500006899238 0.043249996624887 0.00564999974519014 16 0.191453024744987 0.159426465630531 -0.10960428416729 0.272184044122696
-0.0322500006482005 0.043249996624887 0.00564999974519014 16 0.176545396447182 0.18122661113739 -0.0938080921769142 0.269835710525513
-0.0294500006064773 0.043249996624887 0.00564999974519014 16 0.139981836080551 0.219854086637497 -0.0561669617891312 0.266618579626083
-0.026650000564754 0.043249996624887 0.00564999974519014 16 0.0860168039798737 0.246345221996307 -0.00587085820734501 0.260996788740158
-0.0238500005230308 0.043249996624887 0.00564999974519014 16 0.0245674084872007 0.242478430271149 0.0462623611092567 0.248071655631065
-0.0210500004813075 0.043249996624887 0.00564999974519014 16 -0.0348982475697994 0.209090307354927 0.093188188970089 0.2315613925457
-0.0182500004395843 0.043249996624887 0.00564999974519014 16 -0.0843990817666054 0.155481889843941 0.133776783943176 0.221797317266464
-0.015450000397861 0.043249996624887 0.00564999974519014 16 -0.119127616286278 0.093388706445694 0.166379824280739 0.22493351995945
-0.0126500003561378 0.043249996624887 0.00564999974519014 16 -0.138275176286697 0.0285537000745535 0.189172193408012 0.236053928732872
-0.0098500003144145 0.043249996624887 0.00564999974519014 16 -0.140668973326683 -0.0334117598831654 0.192240878939629 0.240542441606522
-0.00705000027269125 0.043249996624887 0.00564999974519014 16 -0.129889279603958 -0.0917371362447739 0.175484135746956 0.236815556883812
-0.004250000230968 0.043249996624887 0.00564999974519014 16 -0.105880066752434 -0.144169390201569 0.136946424841881 0.225277006626129
-0.00145000018924474 0.043249996624887 0.00564999974519014 16 -0.0712824538350105 -0.189705923199654 0.0841920450329781 0.219448909163475
0.0013499998524785 0.043249996624887 0.00564999974519014 16 -0.0245628319680691 -0.219844907522202 0.019947063177824 0.222110331058502
0.00414999989420176 0.043249996624887 0.00564999974519014 16 0.0312333218753338 -0.229413226246834 -0.0523847825825214 0.237381786108017
0.006949999935925 0.043249996624887 0.00564999974519014 16 0.0914198383688927 -0.208348974585533 -0.12976835668087 0.261928826570511
0.00974999997764826 0.043249996624887 0.00564999974519014 16 0.147316485643387 -0.161046415567398 -0.208920910954475 0.302135825157166
0.0125500000193715 0.043249996624887 0.00564999974519014 16 0.18616133928299 -0.0874289944767952 -0.272346794605255 0.341280907392502
0.0153500000610948 0.043249996624887 0.00564999974519014 16 0.199807792901993 -0.000764145574066788 -0.30775398015976 0.36692813038826
0.018150000102818 0.043249996624887 0.00564999974519014 16 0.179024994373322 0.0928505584597588 -0.292494416236877 0.35528039932251
0.0209500001445413 0.043249996624887 0.00564999974519014 16 0.130527883768082 0.176288321614265 -0.230919823050499 0.318495005369186
0.0237500001862645 0.043249996624887 0.00564999974519014 16 0.0596843883395195 0.237090826034546 -0.12913715839386 0.276497185230255
0.0265500002279878 0.043249996624887 0.00564999974519014 16 -0.0155322905629873 0.262974947690964 -0.013847061432898 0.263796925544739
0.029350000269711 0.043249996624887 0.00564999974519014 16 -0.0843795984983444 0.257085204124451 0.0903941765427589 0.285278499126434
0.0321500003114343 0.043249996624887 0.00564999974519014 16 -0.132622271776199 0.235833570361137 0.164822041988373 0.316816121339798
0.0349500003531575 0.043249996624887 0.00564999974519014 16 -0.152986884117126 0.222342371940613 0.194204539060593 0.332500398159027
-0.0350500006899238 0.0404499965831637 0.00564999974519014 16 0.142103865742683 0.132910028100014 -0.101517073810101 0.219463661313057
-0.0322500006482005 0.0404499965831637 0.00564999974519014 16 0.133061498403549 0.146554067730904 -0.0869719982147217 0.216211900115013
-0.0294500006064773 0.0404499965831637 0.00564999974519014 16 0.110255897045135 0.170793771743774 -0.0544393807649612 0.210453137755394
-0.026650000564754 0.0404499965831637 0.00564999974519014 16 0.0742091685533524 0.18631537258625 -0.0115674268454313 0.200883597135544
-0.0238500005230308 0.0404499965831637 0.00564999974519014 16 0.02988694421947 0.181522056460381 0.0317648909986019 0.186688229441643
-0.0210500004813075 0.0404499965831637 0.00564999974519014 16 -0.0148719726130366 0.155689731240273 0.0700556039810181 0.171371683478355
-0.0182500004395843 0.0404499965831637 0.00564999974519014 16 -0.0537903010845184 0.114304482936859 0.103744693100452 0.163468256592751
-0.015450000397861 0.0404499965831637 0.00564999974519014 16 -0.0807777792215347 0.06459641456604 0.130650281906128 0.166635066270828
-0.0126500003561378 0.0404499965831637 0.00564999974519014 16 -0.0954058542847633 0.0115147950127721 0.150844737887383 0.178854689002037
-0.0098500003144145 0.0404499965831637 0.00564999974519014 16 -0.0954031720757484 -0.0391218289732933 0.152521893382072 0.184106513857841
-0.00705000027269125 0.0404499965831637 0.00564999974519014 16 -0.0849920436739922 -0.0851753503084183 0.13778181374073 0.182927072048187
-0.004250000230968 0.0404499965831637 0.00564999974519014 16 -0.0641811564564705 -0.123439840972424 0.102749340236187 0.172956764698029
-0.00145000018924474 0.0404499965831637 0.00564999974519014 16 -0.037713386118412 -0.153923809528351 0.0594032406806946 0.169244155287743
0.0013499998524785 0.0404499965831637 0.00564999974519014 16 -0.00358571438118815 -0.171098873019218 0.00744017632678151 0.17129810154438
0.00414999989420176 0.0404499965831637 0.00564999974519014 16 0.0353479161858559 -0.173766270279884 -0.0486209467053413 0.183870032429695
0.006949999935925 0.0404499965831637 0.00564999974519014 16 0.0790163427591324 -0.156109437346458 -0.112402439117432 0.207961648702621
0.00974999997764826 0.0404499965831637 0.00564999974519014 16 0.120559275150299 -0.123450063169003 -0.179486438632011 0.248977586627007
0.0125500000193715 0.0404499965831637 0.00564999974519014 16 0.151076331734657 -0.0743097066879272 -0.235918059945107 0.289833277463913
0.0153500000610948 0.0404499965831637 0.00564999974519014 16 0.161577522754669 -0.0160608608275652 -0.26576641201973 0.311443477869034
0.018150000102818 0.0404499965831637 0.00564999974519014 16 0.144645914435387 0.0513352043926716 -0.2513028383255 0.294467091560364
0.0209500001445413 0.0404499965831637 0.00564999974519014 16 0.104637131094933 0.116190969944 -0.19594694674015 0.250688016414642
0.0237500001862645 0.0404499965831637 0.00564999974519014 16 0.0462498031556606 0.169267743825912 -0.109459601342678 0.206813961267471
0.0265500002279878 0.0404499965831637 0.00564999974519014 16 -0.0166522767394781 0.198862135410309 -0.011915604583919 0.199913561344147
0.029350000269711 0.0404499965831637 0.00564999974519014 16 -0.0754981487989426 0.205227509140968 0.076533317565918 0.231680050492287
0.0321500003114343 0.0404499965831637 0.00564999974519014 16 -0.117892116308212 0.197845995426178 0.141948640346527 0.270538359880447
0.0349500003531575 0.0404499965831637 0.00564999974519014 16 -0.136300936341286 0.191736742854118 0.168018534779549 0.289086759090424
-0.0350500006899238 0.0376499965414405 0.00564999974519014 16 0.0829306095838547 0.119991697371006 -0.0753851905465126 0.164190202951431
-0.0322500006482005 0.0376499965414405 0.00564999974519014 16 0.0789042264223099 0.129104942083359 -0.0632794871926308 0.164006888866425
-0.0294500006064773 0.0376499965414405 0.00564999974519014 16 0.0677616372704506 0.144150823354721 -0.037493996322155 0.163636490702629
-0.026650000564754 0.0376499965414405 0.00564999974519014 16 0.0480094067752361 0.15173327922821 -0.00494613079354167 0.159224227070808
-0.0238500005230308 0.0376499965414405 0.00564999974519014 16 0.0207281801849604 0.143447726964951 0.0266068037599325 0.147359535098076
-0.0210500004813075 0.0376499965414405 0.00564999974519014 16 -0.00814002752304077 0.11960519105196 0.0531434640288353 0.13113309442997
-0.0182500004395843 0.0376499965414405 0.00564999974519014 16 -0.0343655571341515 0.0837799608707428 0.0765037462115288 0.118544913828373
-0.015450000397861 0.0376499965414405 0.00564999974519014 16 -0.0514981932938099 0.0412336029112339 0.0939125940203667 0.114768676459789
-0.0126500003561378 0.0376499965414405 0.00564999974519014 16 -0.0594184882938862 -0.00427427794784307 0.107776336371899 0.1231444850564
-0.0098500003144145 0.0376499965414405 0.00564999974519014 16 -0.0559286214411259 -0.0467543937265873 0.107712954282761 0.130061775445938
-0.00705000027269125 0.0376499965414405 0.00564999974519014 16 -0.0451602041721344 -0.0833641737699509 0.0973450616002083 0.135886311531067
-0.004250000230968 0.0376499965414405 0.00564999974519014 16 -0.0278070047497749 -0.110929660499096 0.0707495883107185 0.134477227926254