TITLE="DynamicStudio Exported Data"
VARIABLES= "X (m)[m]" "Y (m)[m]" "Z (m)[m]" "Status[-]" "U[-]" "V[-]" "W[-]" "Length[-]"
ZONE T="DynamicStudio Data" F=POINT
-0.0350500006899238 0.0600499968752265 0.00564999974519014 16 0.225758522748947 -0.0824463590979576 -0.337984979152679 0.414726614952087
-0.0322500006482005 0.0600499968752265 0.00564999974519014 16 0.219407111406326 -0.11289232224226 -0.333759605884552 0.415065795183182
-0.0294500006064773 0.0600499968752265 0.00564999974519014 16 0.188237890601158 -0.182421013712883 -0.302969843149185 0.400626569986343
-0.026650000564754 0.0600499968752265 0.00564999974519014 16 0.124437689781189 -0.268564224243164 -0.233969047665596 0.377296954393387
-0.0238500005230308 0.0600499968752265 0.00564999974519014 16 0.0236459299921989 -0.337147295475006 -0.123902820050716 0.359971284866333
-0.0210500004813075 0.0600499968752265 0.00564999974519014 16 -0.0938180685043335 -0.354562997817993 0.00410418072715402 0.36678820848465
-0.0182500004395843 0.0600499968752265 0.00564999974519014 16 -0.202632009983063 -0.301621317863464 0.125678062438965 0.384486824274063
-0.015450000397861 0.0600499968752265 0.00564999974519014 16 -0.277383595705032 -0.181340172886848 0.218887493014336 0.397161990404129
-0.0126500003561378 0.0600499968752265 0.00564999974519014 16 -0.301712036132812 -0.0177257563918829 0.266896426677704 0.403209686279297
-0.0098500003144145 0.0600499968752265 0.00564999974519014 16 -0.275060504674911 0.15181477367878 0.259009271860123 0.40717539191246
-0.00705000027269125 0.0600499968752265 0.00564999974519014 16 -0.19948273897171 0.29065066576004 0.188876882195473 0.399932056665421
-0.004250000230968 0.0600499968752265 0.00564999974519014 16 -0.0948133021593094 0.368373662233353 0.0793239548802376 0.388562738895416
-0.00145000018924474 0.0600499968752265 0.00564999974519014 16 0.0194986462593079 0.378529787063599 -0.0411624610424042 0.381260216236115
0.0013499998524785 0.0600499968752265 0.00564999974519014 16 0.115309081971645 0.3282570540905 -0.133242815732956 0.372562110424042
0.00414999989420176 0.0600499968752265 0.00564999974519014 16 0.179510101675987 0.245708808302879 -0.186981394886971 0.357153654098511
0.006949999935925 0.0600499968752265 0.00564999974519014 16 0.206676229834557 0.155842110514641 -0.198294684290886 0.326071470975876
0.00974999997764826 0.0600499968752265 0.00564999974519014 16 0.206688866019249 0.0789470225572586 -0.185242876410484 0.288561671972275
0.0125500000193715 0.0600499968752265 0.00564999974519014 16 0.192036598920822 0.0149141205474734 -0.157562553882599 0.248850256204605
0.0153500000610948 0.0600499968752265 0.00564999974519014 16 0.171015381813049 -0.0462449565529823 -0.129585042595863 0.21949291229248
0.018150000102818 0.0600499968752265 0.00564999974519014 16 0.146414697170258 -0.121988862752914 -0.0979474112391472 0.214271426200867
0.0209500001445413 0.0600499968752265 0.00564999974519014 16 0.107304058969021 -0.214841336011887 -0.0532558485865593 0.245982006192207
0.0237500001862645 0.0600499968752265 0.00564999974519014 16 0.046629324555397 -0.314033180475235 0.0196159910410643 0.318081617355347
0.0265500002279878 0.0600499968752265 0.00564999974519014 16 -0.0398693904280663 -0.386484950780869 0.122388303279877 0.407356202602386
0.029350000269711 0.0600499968752265 0.00564999974519014 16 -0.136396408081055 -0.416198700666428 0.233312517404556 0.496245980262756
0.0321500003114343 0.0600499968752265 0.00564999974519014 16 -0.217070579528809 -0.406753748655319 0.323083877563477 0.56298440694809
0.0349500003531575 0.0600499968752265 0.00564999974519014 16 -0.25258994102478 -0.396773874759674 0.360379278659821 0.592540621757507
-0.0350500006899238 0.0572499968335032 0.00564999974519014 16 0.182394132018089 -0.0861281082034111 -0.301915526390076 0.363095939159393
-0.0322500006482005 0.0572499968335032 0.00564999974519014 16 0.177884504199028 -0.117695018649101 -0.297676712274551 0.366205453872681
-0.0294500006064773 0.0572499968335032 0.00564999974519014 16 0.154715299606323 -0.191202059388161 -0.27296057343483 0.36742690205574
-0.026650000564754 0.0572499968335032 0.00564999974519014 16 0.105073533952236 -0.283456385135651 -0.216337651014328 0.371739089488983
-0.0238500005230308 0.0572499968335032 0.00564999974519014 16 0.0240874234586954 -0.359703660011292 -0.12465912848711 0.381453573703766
-0.0210500004813075 0.0572499968335032 0.00564999974519014 16 -0.0715959891676903 -0.381584227085114 -0.0161310005933046 0.388577789068222
-0.0182500004395843 0.0572499968335032 0.00564999974519014 16 -0.161739557981491 -0.328013718128204 0.0879009068012238 0.376137286424637
-0.015450000397861 0.0572499968335032 0.00564999974519014 16 -0.224429830908775 -0.199931547045708 0.170451417565346 0.345535904169083
-0.0126500003561378 0.0572499968335032 0.00564999974519014 16 -0.247142747044563 -0.0241894666105509 0.215041786432266 0.328492969274521
-0.0098500003144145 0.0572499968335032 0.00564999974519014 16 -0.227640315890312 0.158927023410797 0.213322758674622 0.350120693445206
-0.00705000027269125 0.0572499968335032 0.00564999974519014 16 -0.166728854179382 0.308206886053085 0.155138298869133 0.38322040438652
-0.004250000230968 0.0572499968335032 0.00564999974519014 16 -0.0791590511798859 0.391772776842117 0.061522725969553 0.404397219419479
-0.00145000018924474 0.0572499968335032 0.00564999974519014 16 0.0188379418104887 0.401718288660049 -0.044378399848938 0.404600918292999
0.0013499998524785 0.0572499968335032 0.00564999974519014 16 0.101477742195129 0.346939086914062 -0.124600887298584 0.382347822189331
0.00414999989420176 0.0572499968335032 0.00564999974519014 16 0.155609473586082 0.25718280673027 -0.168938517570496 0.344815194606781
0.006949999935925 0.0572499968335032 0.00564999974519014 16 0.175775483250618 0.161087363958359 -0.172657325863838 0.294375121593475
0.00974999997764826 0.0572499968335032 0.00564999974519014 16 0.171901643276215 0.080027736723423 -0.152695447206497 0.243455365300179
0.0125500000193715 0.0572499968335032 0.00564999974519014 16 0.155873879790306 0.0150377321988344 -0.119970373809338 0.197270601987839
0.0153500000610948 0.0572499968335032 0.00564999974519014 16 0.135776713490486 -0.0473775006830692 -0.089169017970562 0.169207140803337
0.018150000102818 0.0572499968335032 0.00564999974519014 16 0.113293014466763 -0.12532901763916 -0.0574545003473759 0.178447991609573
0.0209500001445413 0.0572499968335032 0.00564999974519014 16 0.079686664044857 -0.224279776215553 -0.016395540907979 0.238579541444778
0.0237500001862645 0.0572499968335032 0.00564999974519014 16 0.0290809888392687 -0.330627143383026 0.0482348799705505 0.335390239953995
0.0265500002279878 0.0572499968335032 0.00564999974519014 16 -0.0417002588510513 -0.410277873277664 0.136063873767853 0.434258222579956
0.029350000269711 0.0572499968335032 0.00564999974519014 16 -0.119257524609566 -0.442839533090591 0.228451922535896 0.512366533279419
0.0321500003114343 0.0572499968335032 0.00564999974519014 16 -0.183466583490372 -0.433535754680634 0.301686614751816 0.559131503105164
0.0349500003531575 0.0572499968335032 0.00564999974519014 16 -0.212050706148148 -0.42107367515564 0.333252221345901 0.577343583106995
-0.0350500006899238 0.05444999679178 0.00564999974519014 16 0.0821658372879028 -0.0985686406493187 -0.202089861035347 0.239389464259148
-0.0322500006482005 0.05444999679178 0.00564999974519014 16 0.0821815058588982 -0.13171349465847 -0.202541142702103 0.255196303129196
-0.0294500006064773 0.05444999679178 0.00564999974519014 16 0.0746712535619736 -0.210222899913788 -0.193380013108253 0.295237690210342
-0.026650000564754 0.05444999679178 0.00564999974519014 16 0.0558334663510323 -0.310248464345932 -0.166859209537506 0.356669992208481
-0.0238500005230308 0.05444999679178 0.00564999974519014 16 0.0199952647089958 -0.395585179328918 -0.120114088058472 0.413901954889297
-0.0210500004813075 0.05444999679178 0.00564999974519014 16 -0.0238196011632681 -0.422592967748642 -0.060556024312973 0.427573651075363
-0.0182500004395843 0.05444999679178 0.00564999974519014 16 -0.0685298219323158 -0.366842120885849 0.000144829478813335 0.37318828701973
-0.015450000397861 0.05444999679178 0.00564999974519014 16 -0.101579666137695 -0.227039039134979 0.0556622035801411 0.254879266023636
-0.0126500003561378 0.05444999679178 0.00564999974519014 16 -0.11785389482975 -0.0329211466014385 0.0915738046169281 0.152836859226227
-0.0098500003144145 0.05444999679178 0.00564999974519014 16 -0.113680586218834 0.171310469508171 0.103351630270481 0.230113252997398
-0.00705000027269125 0.05444999679178 0.00564999974519014 16 -0.0863622948527336 0.337307125329971 0.0752881765365601 0.35623425245285
-0.004250000230968 0.05444999679178 0.00564999974519014 16 -0.0406879186630249 0.429413914680481 0.0220939666032791 0.4319027364254
-0.00145000018924474 0.05444999679178 0.00564999974519014 16 0.0156869553029537 0.438357502222061 -0.0451190583407879 0.440952479839325
0.0013499998524785 0.05444999679178 0.00564999974519014 16 0.0648030564188957 0.375944226980209 -0.0955026894807816 0.393261045217514
0.00414999989420176 0.05444999679178 0.00564999974519014 16 0.0952960327267647 0.275246530771255 -0.118624553084373 0.314505606889725
0.006949999935925 0.05444999679178 0.00564999974519014 16 0.101388268172741 0.168679848313332 -0.106987521052361 0.224006250500679
0.00974999997764826 0.05444999679178 0.00564999974519014 16 0.0899563953280449 0.0793629214167595 -0.0723186284303665 0.140073582530022
0.0125500000193715 0.05444999679178 0.00564999974519014 16 0.0713851451873779 0.0103952642530203 -0.0283375419676304 0.0775042995810509
0.0153500000610948 0.05444999679178 0.00564999974519014 16 0.0529295243322849 -0.0548983812332153 0.00885803531855345 0.0767712965607643
0.018150000102818 0.05444999679178 0.00564999974519014 16 0.0363689884543419 -0.13520684838295 0.0393135622143745 0.145427480340004
0.0209500001445413 0.05444999679178 0.00564999974519014 16 0.0163302011787891 -0.241030886769295 0.0681281462311745 0.251006007194519
0.0237500001862645 0.05444999679178 0.00564999974519014 16 -0.00934777036309242 -0.355612903833389 0.106608547270298 0.371366798877716
0.0265500002279878 0.05444999679178 0.00564999974519014 16 -0.041895430535078 -0.444955945014954 0.152168571949005 0.472118943929672
0.029350000269711 0.05444999679178 0.00564999974519014 16 -0.0743351653218269 -0.482381492853165 0.195928677916527 0.525933146476746
0.0321500003114343 0.05444999679178 0.00564999974519014 16 -0.100063838064671 -0.475148111581802 0.226176932454109 0.535662710666656
0.0349500003531575 0.05444999679178 0.00564999974519014 16 -0.110733345150948 -0.461578756570816 0.237167626619339 0.530627250671387
-0.0350500006899238 0.0516499967500567 0.00564999974519014 16 -0.0336417257785797 -0.113940618932247 -0.0885354653000832 0.148164629936218
-0.0322500006482005 0.0516499967500567 0.00564999974519014 16 -0.0288926735520363 -0.14713129401207 -0.0917821377515793 0.175802066922188
-0.0294500006064773 0.0516499967500567 0.00564999974519014 16 -0.0183363165706396 -0.223962917923927 -0.09968451410532 0.245830461382866
-0.026650000564754 0.0516499967500567 0.00564999974519014 16 -0.00198271474801004 -0.321599185466766 -0.107986442744732 0.339250713586807
-0.0238500005230308 0.0516499967500567 0.00564999974519014 16 0.0138357663527131 -0.403257131576538 -0.113053180277348 0.419033139944077
-0.0210500004813075 0.0516499967500567 0.00564999974519014 16 0.0291643459349871 -0.428225457668304 -0.11030300706625 0.443164020776749
-0.0182500004395843 0.0516499967500567 0.00564999974519014 16 0.0378294885158539 -0.371380388736725 -0.101531863212585 0.386863231658936
-0.015450000397861 0.0516499967500567 0.00564999974519014 16 0.0406121462583542 -0.231455191969872 -0.0826568603515625 0.249104410409927
-0.0126500003561378 0.0516499967500567 0.00564999974519014 16 0.0347386673092842 -0.0364423803985119 -0.0621418207883835 0.0799776688218117
-0.0098500003144145 0.0516499967500567 0.00564999974519014 16 0.0230335276573896 0.169255569577217 -0.0388165712356567 0.175170540809631
-0.00705000027269125 0.0516499967500567 0.00564999974519014 16 0.0116890454664826 0.33672970533371 -0.0293501485139132 0.338208436965942
-0.004250000230968 0.0516499967500567 0.00564999974519014 16 0.0065824487246573 0.43046647310257 -0.0296573825180531 0.431537091732025
-0.00145000018924474 0.0516499967500567 0.00564999974519014 16 0.0110636558383703 0.440794289112091 -0.0431163161993027 0.443036139011383
0.0013499998524785 0.0516499967500567 0.00564999974519014 16 0.018433753401041 0.378677695989609 -0.0535335093736649 0.382886976003647
0.00414999989420176 0.0516499967500567 0.00564999974519014 16 0.0197203774005175 0.276547640562057 -0.0497097969055176 0.281671017408371
0.006949999935925 0.0516499967500567 0.00564999974519014 16 0.00959566608071327 0.16600102186203 -0.0218985341489315 0.167713925242424
0.00974999997764826 0.0516499967500567 0.00564999974519014 16 -0.00984396878629923 0.0717452168464661 0.0267877262085676 0.0772130936384201
0.0125500000193715 0.0516499967500567 0.00564999974519014 16 -0.0297149214893579 -0.00126606645062566 0.0801265463232994 0.0854683741927147
0.0153500000610948 0.0516499967500567 0.00564999974519014 16 -0.0448888912796974 -0.0692244544625282 0.121964246034622 0.147249162197113
0.018150000102818 0.0516499967500567 0.00564999974519014 16 -0.0526292324066162 -0.148859485983849 0.147423148155212 0.216015189886093
0.0209500001445413 0.0516499967500567 0.00564999974519014 16 -0.0549755729734898 -0.252785444259644 0.159191220998764 0.303750932216644
0.0237500001862645 0.0516499967500567 0.00564999974519014 16 -0.0503883101046085 -0.361612290143967 0.164875030517578 0.400607287883759
0.0265500002279878 0.0516499967500567 0.00564999974519014 16 -0.0382226184010506 -0.44697305560112 0.158946990966797 0.475930690765381
0.029350000269711 0.0516499967500567 0.00564999974519014 16 -0.0183670781552792 -0.480700880289078 0.144980400800705 0.502424120903015
0.0321500003114343 0.0516499967500567 0.00564999974519014 16 0.00104660890065134 -0.473964393138885 0.12536683678627 0.490265429019928
0.0349500003531575 0.0516499967500567 0.00564999974519014 16 0.0107691278681159 -0.459739983081818 0.116952791810036 0.474504768848419
-0.0350500006899238 0.0488499967083335 0.00564999974519014 16 -0.125462174415588 -0.130339726805687 0.00998325366526842 0.181187376379967
-0.0322500006482005 0.0488499967083335 0.00564999974519014 16 -0.116694614291191 -0.160099759697914 0.00143472594209015 0.19812023639679
-0.0294500006064773 0.0488499967083335 0.00564999974519014 16 -0.0925989598035812 -0.225833237171173 -0.0228582434356213 0.245148360729218
-0.026650000564754 0.0488499967083335 0.00564999974519014 16 -0.0504620373249054 -0.307005077600479 -0.059986088424921 0.316854655742645
-0.0238500005230308 0.0488499967083335 0.00564999974519014 16 0.0045822411775589 -0.369307905435562 -0.105968073010445 0.38423764705658
-0.0210500004813075 0.0488499967083335 0.00564999974519014 16 0.0653860121965408 -0.382569551467896 -0.149070516228676 0.415760517120361
-0.0182500004395843 0.0488499967083335 0.00564999974519014 16 0.117331318557262 -0.325165301561356 -0.183066412806511 0.391168028116226
-0.015450000397861 0.0488499967083335 0.00564999974519014 16 0.149944245815277 -0.198663547635078 -0.196457490324974 0.317089945077896
-0.0126500003561378 0.0488499967083335 0.00564999974519014 16 0.155071765184402 -0.0248723085969687 -0.190450251102448 0.246854573488235
-0.0098500003144145 0.0488499967083335 0.00564999974519014 16 0.132911950349808 0.157297804951668 -0.160139948129654 0.260869681835175
-0.00705000027269125 0.0488499967083335 0.00564999974519014 16 0.0923165157437325 0.306031614542007 -0.119504518806934 0.341260939836502
-0.004250000230968 0.0488499967083335 0.00564999974519014 16 0.0465970933437347 0.389810234308243 -0.0755055397748947 0.399780422449112
-0.00145000018924474 0.0488499967083335 0.00564999974519014 16 0.00831081252545118 0.401033192873001 -0.041771937161684 0.403288453817368
0.0013499998524785 0.0488499967083335 0.00564999974519014 16 -0.0189982857555151 0.347520112991333 -0.0168639793992043 0.348447352647781
0.00414999989420176 0.0488499967083335 0.00564999974519014 16 -0.0409887172281742 0.256635010242462 0.0107241244986653 0.260108858346939
0.006949999935925 0.0488499967083335 0.00564999974519014 16 -0.0629698261618614 0.152838066220284 0.0519442334771156 0.173271104693413
0.00974999997764826 0.0488499967083335 0.00564999974519014 16 -0.0878538563847542 0.0602633692324162 0.111227177083492 0.154017731547356
0.0125500000193715 0.0488499967083335 0.00564999974519014 16 -0.108275823295116 -0.0152026694267988 0.17043699324131 0.202493324875832
0.0153500000610948 0.0488499967083335 0.00564999974519014 16 -0.120056189596653 -0.0835153982043266 0.213708594441414 0.25895881652832
0.018150000102818 0.0488499967083335 0.00564999974519014 16 -0.118592239916325 -0.156801611185074 0.230947569012642 0.303294628858566
0.0209500001445413 0.0488499967083335 0.00564999974519014 16 -0.104241050779819 -0.246497541666031 0.222533583641052 0.348063826560974
0.0237500001862645 0.0488499967083335 0.00564999974519014 16 -0.0730459913611412 -0.334881991147995 0.192901417613029 0.393309831619263
0.0265500002279878 0.0488499967083335 0.00564999974519014 16 -0.0242495089769363 -0.403276234865189 0.136810630559921 0.426540642976761
0.029350000269711 0.0488499967083335 0.00564999974519014 16 0.0367701798677444 -0.427413374185562 0.0703873783349991 0.43472820520401
0.0321500003114343 0.0488499967083335 0.00564999974519014 16 0.0906500369310379 -0.42118439078331 0.00578777212649584 0.430867969989777
0.0349500003531575 0.0488499967083335 0.00564999974519014 16 0.116124644875526 -0.409139811992645 -0.022158270701766 0.425877124071121
-0.0350500006899238 0.0460499966666102 0.00564999974519014 16 -0.161263674497604 -0.138020560145378 0.046149767935276 0.217222109436989
-0.0322500006482005 0.0460499966666102 0.00564999974519014 16 -0.15068057179451 -0.162346109747887 0.035736933350563 0.224361374974251
-0.0294500006064773 0.0460499966666102 0.00564999974519014 16 -0.121114812791348 -0.211375668644905 0.00515657244250178 0.243669986724854
-0.026650000564754 0.0460499966666102 0.00564999974519014 16 -0.0704665705561638 -0.26691260933876 -0.0424747653305531 0.279306262731552
-0.0238500005230308 0.0460499966666102 0.00564999974519014 16 -0.00246938015334308 -0.301056146621704 -0.102575212717056 0.318060636520386
-0.0210500004813075 0.0460499966666102 0.00564999974519014 16 0.0732273831963539 -0.296979397535324 -0.163079679012299 0.346632361412048
-0.0182500004395843 0.0460499966666102 0.00564999974519014 16 0.141110360622406 -0.241258025169373 -0.214882656931877 0.352550864219666
-0.015450000397861 0.0460499966666102 0.00564999974519014 16 0.185314789414406 -0.138357818126678 -0.245184868574142 0.3370461165905
-0.0126500003561378 0.0460499966666102 0.00564999974519014 16 0.196097195148468 -0.00311719276942313 -0.248531505465508 0.31659397482872
-0.0098500003144145 0.0460499966666102 0.00564999974519014 16 0.171587467193604 0.135504648089409 -0.218529567122459 0.309126079082489
-0.00705000027269125 0.0460499966666102 0.00564999974519014 16 0.121415294706821 0.249205216765404 -0.164464265108109 0.322325021028519
-0.004250000230968 0.0460499966666102 0.00564999974519014 16 0.0614755749702454 0.315064579248428 -0.0996689647436142 0.336123257875443
-0.00145000018924474 0.0460499966666102 0.00564999974519014 16 0.0079332310706377 0.327947288751602 -0.0431211702525616 0.330865204334259
0.0013499998524785 0.0460499966666102 0.00564999974519014 16 -0.0313369408249855 0.289913833141327 -0.00172946543898433 0.291607648134232
0.00414999989420176 0.0460499966666102 0.00564999974519014 16 -0.0605752505362034 0.219694748520851 0.0353572554886341 0.230619341135025
0.006949999935925 0.0460499966666102 0.00564999974519014 16 -0.0861443057656288 0.132560446858406 0.0805776938796043 0.177442610263824
0.00974999997764826 0.0460499966666102 0.00564999974519014 16 -0.112432964146137 0.0498872399330139 0.141256406903267 0.187305316329002
0.0125500000193715 0.0460499966666102 0.00564999974519014 16 -0.132619470357895 -0.0227870121598244 0.199546411633492 0.240678086876869
0.0153500000610948 0.0460499966666102 0.00564999974519014 16 -0.141769215464592 -0.088025227189064 0.239671170711517 0.292043179273605
0.018150000102818 0.0460499966666102 0.00564999974519014 16 -0.134127885103226 -0.152763664722443 0.248914644122124 0.321380645036697
0.0209500001445413 0.0460499966666102 0.00564999974519014 16 -0.110823072493076 -0.22294145822525 0.227508157491684 0.337260454893112
0.0237500001862645 0.0460499966666102 0.00564999974519014 16 -0.0676486268639565 -0.284315258264542 0.17932890355587 0.342885345220566
0.0265500002279878 0.0460499966666102 0.00564999974519014 16 -0.00551794935017824 -0.327597409486771 0.101161576807499 0.3429054915905
0.029350000269711 0.0460499966666102 0.00564999974519014 16 0.069327175617218 -0.337757974863052 0.0135217607021332 0.345064550638199
0.0321500003114343 0.0460499966666102 0.00564999974519014 16 0.134371429681778 -0.329797804355621 -0.0676964595913887 0.36249840259552
0.0349500003531575 0.0460499966666102 0.00564999974519014 16 0.164941340684891 -0.319722652435303 -0.10091657936573 0.373647391796112
-0.0350500006899238 0.043249996624887 0.00564999974519014 16 -0.148979350924492 -0.14034129679203 0.0362096428871155 0.207850098609924
-0.0322500006482005 0.043249996624887 0.00564999974519014 16 -0.137944310903549 -0.157599210739136 0.0233708992600441 0.210742354393005
-0.0294500006064773 0.043249996624887 0.00564999974519014 16 -0.109722666442394 -0.18951778113842 -0.00859894137829542 0.219157457351685
-0.026650000564754 0.043249996624887 0.00564999974519014 16 -0.0645078644156456 -0.220209419727325 -0.0530757270753384 0.235521733760834
-0.0238500005230308 0.043249996624887 0.00564999974519014 16 -0.00491274194791913 -0.230158373713493 -0.106560260057449 0.253677159547806
-0.0210500004813075 0.043249996624887 0.00564999974519014 16 0.0612009428441525 -0.211653888225555 -0.160809800028801 0.272768616676331
-0.0182500004395843 0.043249996624887 0.00564999974519014 16 0.121762029826641 -0.159310385584831 -0.207885235548019 0.288828790187836
-0.015450000397861 0.043249996624887 0.00564999974519014 16 0.161311522126198 -0.0780649557709694 -0.236606180667877 0.296813130378723
-0.0126500003561378 0.043249996624887 0.00564999974519014 16 0.170499622821808 0.0217903181910515 -0.238267198204994 0.293796181678772
-0.0098500003144145 0.043249996624887 0.00564999974519014 16 0.147586181759834 0.120763681828976 -0.208963334560394 0.282897889614105
-0.00705000027269125 0.043249996624887 0.00564999974519014 16 0.102328613400459 0.20142126083374 -0.157165661454201 0.275213956832886
-0.004250000230968 0.043249996624887 0.00564999974519014 16 0.0503915064036846 0.249341979622841 -0.0975240990519524 0.272436559200287
-0.00145000018924474 0.043249996624887 0.00564999974519014 16 0.00585044175386429 0.261585772037506 -0.0463598296046257 0.265726506710052
0.0013499998524785 0.043249996624887 0.00564999974519014 16 -0.0252899769693613 0.236765176057816 -0.00784166809171438 0.238241106271744
0.00414999989420176 0.043249996624887 0.00564999974519014 16 -0.0481797344982624 0.185605183243752 0.0273901298642159 0.193702831864357
0.006949999935925 0.043249996624887 0.00564999974519014 16 -0.0702168419957161 0.116347953677177 0.0710639208555222 0.153353616595268
0.00974999997764826 0.043249996624887 0.00564999974519014 16 -0.094282865524292 0.0463618710637093 0.127103820443153 0.164906218647957
0.0125500000193715 0.043249996624887 0.00564999974519014 16 -0.113137759268284 -0.0197173878550529 0.179811015725136 0.213356345891953
0.0153500000610948 0.043249996624887 0.00564999974519014 16 -0.120396353304386 -0.0790693014860153 0.213662594556808 0.257679909467697
0.018150000102818 0.043249996624887 0.00564999974519014 16 -0.110088549554348 -0.134966224431992 0.216572031378746 0.277918726205826
0.0209500001445413 0.043249996624887 0.00564999974519014 16 -0.0849191695451736 -0.188081175088882 0.188880398869514 0.279752731323242
0.0237500001862645 0.043249996624887 0.00564999974519014 16 -0.0418619960546494 -0.228938221931458 0.135193794965744 0.269151449203491
0.0265500002279878 0.043249996624887 0.00564999974519014 16 0.0156028894707561 -0.253203511238098 0.0568967089056969 0.259985953569412
0.029350000269711 0.043249996624887 0.00564999974519014 16 0.0825175940990448 -0.25414103269577 -0.027803773060441 0.268644511699677
0.0321500003114343 0.043249996624887 0.00564999974519014 16 0.139259681105614 -0.244910955429077 -0.103634893894196 0.300191313028336
0.0349500003531575 0.043249996624887 0.00564999974519014 16 0.166159093379974 -0.237035349011421 -0.136271864175797 0.319944709539413
-0.0350500006899238 0.0404499965831637 0.00564999974519014 16 -0.108644723892212 -0.13355940580368 0.000582986627705395 0.172168910503387
-0.0322500006482005 0.0404499965831637 0.00564999974519014 16 -0.0990821123123169 -0.14548222720623 -0.0106843654066324 0.176341995596886
-0.0294500006064773 0.0404499965831637 0.00564999974519014 16 -0.0763560310006142 -0.165144741535187 -0.03740593791008 0.185747772455215
-0.026650000564754 0.0404499965831637 0.00564999974519014 16 -0.0429791249334812 -0.178175389766693 -0.0700650066137314 0.196221247315407
-0.0238500005230308 0.0404499965831637 0.00564999974519014 16 -0.00115144473966211 -0.172579035162926 -0.107527986168861 0.203339904546738
-0.0210500004813075 0.0404499965831637 0.00564999974519014 16 0.0442116148769855 -0.145565524697304 -0.144971624016762 0.210144624114037
-0.0182500004395843 0.0404499965831637 0.00564999974519014 16 0.0856543928384781 -0.0977323278784752 -0.178525328636169 0.22081570327282
-0.015450000397861 0.0404499965831637 0.00564999974519014 16 0.111168943345547 -0.033187922090292 -0.19674825668335 0.228407204151154
-0.0126500003561378 0.0404499965831637 0.00564999974519014 16 0.113835647702217 0.0399737618863583 -0.192311391234398 0.227024510502815
-0.0098500003144145 0.0404499965831637 0.00564999974519014 16 0.0932365730404854 0.110000878572464 -0.163098812103271 0.217702731490135
-0.00705000027269125 0.0404499965831637 0.00564999974519014 16 0.0587103776633739 0.166516467928886 -0.119610220193863 0.213263332843781
-0.004250000230968 0.0404499965831637 0.00564999974519014 16 0.0234746132045984 0.201570227742195 -0.073728621006012 0.215910911560059
-0.00145000018924474 0.0404499965831637 0.00564999974519014 16 -0.00203170045278966 0.212389200925827 -0.0388722866773605 0.215926736593246
0.0013499998524785 0.0404499965831637 0.00564999974519014 16 -0.0162985008209944 0.196271076798439 -0.0141192153096199 0.197452083230019
0.00414999989420176 0.0404499965831637 0.00564999974519014 16 -0.0265905987471342 0.158701106905937 0.00894045457243919 0.161161512136459
0.006949999935925 0.0404499965831637 0.00564999974519014 16 -0.0411768592894077 0.104594938457012 0.0421443767845631 0.120049089193344
0.00974999997764826 0.0404499965831637 0.00564999974519014 16 -0.0607800632715225 0.0471584610641003 0.086410753428936 0.115693368017673
0.0125500000193715 0.0404499965831637 0.00564999974519014 16 -0.0769658014178276 -0.0101544242352247 0.12916474044323 0.150699630379677
0.0153500000610948 0.0404499965831637 0.00564999974519014 16 -0.0825112983584404 -0.0625231042504311 0.155810981988907 0.187067672610283
0.018150000102818 0.0404499965831637 0.00564999974519014 16 -0.0720744952559471 -0.111312471330166 0.155613124370575 0.20445205271244
0.0209500001445413 0.0404499965831637 0.00564999974519014 16 -0.0495809651911259 -0.153244242072105 0.129191964864731 0.206476703286171
0.0237500001862645 0.0404499965831637 0.00564999974519014 16 -0.0138645647093654 -0.182175144553185 0.0823397934436798 0.200399234890938
0.0265500002279878 0.0404499965831637 0.00564999974519014 16 0.0299387853592634 -0.195021063089371 0.0213692616671324 0.198459550738335
0.029350000269711 0.0404499965831637 0.00564999974519014 16 0.0787856876850128 -0.191247791051865 -0.0417669080197811 0.211015105247498
0.0321500003114343 0.0404499965831637 0.00564999974519014 16 0.118704661726952 -0.181062489748001 -0.0949666202068329 0.236417174339294
0.0349500003531575 0.0404499965831637 0.00564999974519014 16 0.137748122215271 -0.174350306391716 -0.118148699402809 0.251657903194427
-0.0350500006899238 0.0376499965414405 0.00564999974519014 16 -0.0647078230977058 -0.122413463890553 -0.0337834395468235 0.142525359988213
-0.0322500006482005 0.0376499965414405 0.00564999974519014 16 -0.0567282624542713 -0.130567640066147 -0.0443720109760761 0.149113640189171
-0.0294500006064773 0.0376499965414405 0.00564999974519014 16 -0.0391179360449314 -0.143024265766144 -0.0669753029942513 0.162701696157455
-0.026650000564754 0.0376499965414405 0.00564999974519014 16 -0.0160640068352222 -0.147255316376686 -0.0891048684716225 0.172863706946373
-0.0238500005230308 0.0376499965414405 0.00564999974519014 16 0.0103368079289794 -0.135838106274605 -0.111857920885086 0.176269769668579
-0.0210500004813075 0.0376499965414405 0.00564999974519014 16 0.0370212495326996 -0.10768585652113 -0.132238939404488 0.174510613083839
-0.0182500004395843 0.0376499965414405 0.00564999974519014 16 0.0604572780430317 -0.0652968510985374 -0.151227235794067 0.17546634376049
-0.015450000397861 0.0376499965414405 0.00564999974519014 16 0.0721766501665115 -0.0109705701470375 -0.156235039234161 0.172450602054596
-0.0126500003561378 0.0376499965414405 0.00564999974519014 16 0.0678670853376389 0.0486074090003967 -0.144334927201271 0.166736900806427
-0.0098500003144145 0.0376499965414405 0.00564999974519014 16 0.0476957522332668 0.105152904987335 -0.11331681907177 0.161779850721359
-0.00705000027269125 0.0376499965414405 0.00564999974519014 16 0.0210321918129921 0.149734303355217 -0.0779405906796455 0.170110121369362