TITLE="DynamicStudio Exported Data"
VARIABLES= "X (m)[m]" "Y (m)[m]" "Z (m)[m]" "Status[-]" "U[-]" "V[-]" "W[-]" "Length[-]"
ZONE T="DynamicStudio Data" F=POINT
-0.0350500006899238 0.0600499968752265 0.00564999974519014 16 0.117450952529907 -0.319578379392624 -0.287311434745789 0.445502996444702
-0.0322500006482005 0.0600499968752265 0.00564999974519014 16 0.0682526379823685 -0.330325931310654 -0.227545782923698 0.406879246234894
-0.0294500006064773 0.0600499968752265 0.00564999974519014 16 -0.0335857756435871 -0.341514527797699 -0.111929789185524 0.360954910516739
-0.026650000564754 0.0600499968752265 0.00564999974519014 16 -0.155372306704521 -0.307221978902817 0.0413267575204372 0.34674745798111
-0.0238500005230308 0.0600499968752265 0.00564999974519014 16 -0.24556976556778 -0.209592863917351 0.156826302409172 0.35892641544342
-0.0210500004813075 0.0600499968752265 0.00564999974519014 16 -0.28871276974678 -0.0485503897070885 0.233480840921402 0.374466955661774
-0.0182500004395843 0.0600499968752265 0.00564999974519014 16 -0.267238587141037 0.130686566233635 0.227629229426384 0.374580442905426
-0.015450000397861 0.0600499968752265 0.00564999974519014 16 -0.201478704810143 0.287387371063232 0.17101676762104 0.39042529463768
-0.0126500003561378 0.0600499968752265 0.00564999974519014 16 -0.10059992223978 0.377917349338531 0.0609464049339294 0.395798325538635
-0.0098500003144145 0.0600499968752265 0.00564999974519014 16 0.00520689599215984 0.392291396856308 -0.0570732094347477 0.396455556154251
-0.00705000027269125 0.0600499968752265 0.00564999974519014 16 0.0951829180121422 0.336135864257812 -0.153389260172844 0.381543397903442
-0.004250000230968 0.0600499968752265 0.00564999974519014 16 0.154418662190437 0.24118746817112 -0.207197248935699 0.353478729724884
-0.00145000018924474 0.0600499968752265 0.00564999974519014 16 0.179222941398621 0.138692617416382 -0.215529158711433 0.312744796276093
0.0013499998524785 0.0600499968752265 0.00564999974519014 16 0.186382710933685 0.0569140464067459 -0.215856373310089 0.290812134742737
0.00414999989420176 0.0600499968752265 0.00564999974519014 16 0.185884371399879 -0.00202359259128571 -0.223587617278099 0.290772289037704
0.006949999935925 0.0600499968752265 0.00564999974519014 16 0.189717561006546 -0.0516653209924698 -0.259056240320206 0.325226366519928
0.00974999997764826 0.0600499968752265 0.00564999974519014 16 0.194123461842537 -0.112293995916843 -0.301508009433746 0.375767141580582
0.0125500000193715 0.0600499968752265 0.00564999974519014 16 0.187390968203545 -0.193742543458939 -0.333032429218292 0.428441554307938
0.0153500000610948 0.0600499968752265 0.00564999974519014 16 0.153689458966255 -0.282821178436279 -0.322095096111298 0.455360859632492
0.018150000102818 0.0600499968752265 0.00564999974519014 16 0.0795562863349915 -0.352735668420792 -0.259946376085281 0.445335566997528
0.0209500001445413 0.0600499968752265 0.00564999974519014 16 -0.0280603151768446 -0.36915597319603 -0.145497262477875 0.397785067558289
0.0237500001862645 0.0600499968752265 0.00564999974519014 16 -0.14864107966423 -0.313017904758453 -0.00832733232527971 0.346617549657822
0.0265500002279878 0.0600499968752265 0.00564999974519014 16 -0.245623037219048 -0.189154505729675 0.118763394653797 0.331986218690872
0.029350000269711 0.0600499968752265 0.00564999974519014 16 -0.303715407848358 -0.0312619879841805 0.207957744598389 0.369414120912552
0.0321500003114343 0.0600499968752265 0.00564999974519014 16 -0.320840746164322 0.106283336877823 0.252087265253067 0.421643108129501
0.0349500003531575 0.0600499968752265 0.00564999974519014 16 -0.322266072034836 0.170993357896805 0.264290183782578 0.450492441654205
-0.0350500006899238 0.0572499968335032 0.00564999974519014 16 0.109013430774212 -0.342909216880798 -0.296010404825211 0.465932190418243
-0.0322500006482005 0.0572499968335032 0.00564999974519014 16 0.0655671060085297 -0.354768306016922 -0.241645485162735 0.434225916862488
-0.0294500006064773 0.0572499968335032 0.00564999974519014 16 -0.0212487708777189 -0.366569936275482 -0.140399158000946 0.393111884593964
-0.026650000564754 0.0572499968335032 0.00564999974519014 16 -0.124385051429272 -0.329377412796021 -0.00271302205510437 0.352091580629349
-0.0238500005230308 0.0572499968335032 0.00564999974519014 16 -0.198876366019249 -0.223711401224136 0.10252857208252 0.316402763128281
-0.0210500004813075 0.0572499968335032 0.00564999974519014 16 -0.234136775135994 -0.050314623862505 0.176243871450424 0.29734405875206
-0.0182500004395843 0.0572499968335032 0.00564999974519014 16 -0.216893270611763 0.142845377326012 0.177544131875038 0.314594060182571
-0.015450000397861 0.0572499968335032 0.00564999974519014 16 -0.164017364382744 0.311521947383881 0.134000360965729 0.376701086759567
-0.0126500003561378 0.0572499968335032 0.00564999974519014 16 -0.0829998552799225 0.409455955028534 0.0435468032956123 0.420046985149384
-0.0098500003144145 0.0572499968335032 0.00564999974519014 16 0.00462940987199545 0.425250709056854 -0.0569097883999348 0.429066807031631
-0.00705000027269125 0.0572499968335032 0.00564999974519014 16 0.0800503492355347 0.364107728004456 -0.139134615659714 0.397920787334442
-0.004250000230968 0.0572499968335032 0.00564999974519014 16 0.131275579333305 0.259577006101608 -0.18614549934864 0.345345705747604
-0.00145000018924474 0.0572499968335032 0.00564999974519014 16 0.152464747428894 0.146623179316521 -0.193823799490929 0.286899834871292
0.0013499998524785 0.0572499968335032 0.00564999974519014 16 0.158491209149361 0.0565458834171295 -0.194446846842766 0.257150709629059
0.00414999989420176 0.0572499968335032 0.00564999974519014 16 0.15836788713932 -0.00602696556597948 -0.203345268964767 0.257810026407242
0.006949999935925 0.0572499968335032 0.00564999974519014 16 0.163520365953445 -0.0566074214875698 -0.23640850186348 0.29297149181366
0.00974999997764826 0.0572499968335032 0.00564999974519014 16 0.169386982917786 -0.117399364709854 -0.277622193098068 0.345758080482483
0.0125500000193715 0.0572499968335032 0.00564999974519014 16 0.167270660400391 -0.202452585101128 -0.311458587646484 0.40739780664444
0.0153500000610948 0.0572499968335032 0.00564999974519014 16 0.141799688339233 -0.298362642526627 -0.31087338924408 0.453618437051773
0.018150000102818 0.0572499968335032 0.00564999974519014 16 0.0828922837972641 -0.377310156822205 -0.26501527428627 0.468473255634308
0.0209500001445413 0.0572499968335032 0.00564999974519014 16 -0.00657746847718954 -0.399414092302322 -0.170821875333786 0.434459418058395
0.0237500001862645 0.0572499968335032 0.00564999974519014 16 -0.107815019786358 -0.341600775718689 -0.053280234336853 0.362151831388474
0.0265500002279878 0.0572499968335032 0.00564999974519014 16 -0.191311180591583 -0.20793816447258 0.0591018982231617 0.288671582937241
0.029350000269711 0.0572499968335032 0.00564999974519014 16 -0.241417869925499 -0.0359496995806694 0.138831108808517 0.280800729990005
0.0321500003114343 0.0572499968335032 0.00564999974519014 16 -0.25802806019783 0.114481694996357 0.18082183599472 0.335232853889465
0.0349500003531575 0.0572499968335032 0.00564999974519014 16 -0.259970664978027 0.184904485940933 0.192696020007133 0.372701168060303
-0.0350500006899238 0.05444999679178 0.00564999974519014 16 0.0768870189785957 -0.376655220985413 -0.271536707878113 0.470651626586914
-0.0322500006482005 0.05444999679178 0.00564999974519014 16 0.0513213910162449 -0.390564769506454 -0.239000007510185 0.460755616426468
-0.0294500006064773 0.05444999679178 0.00564999974519014 16 0.00411115121096373 -0.40292426943779 -0.180759787559509 0.441632181406021
-0.026650000564754 0.05444999679178 0.00564999974519014 16 -0.0523821599781513 -0.358992010354996 -0.0874304622411728 0.373179912567139
-0.0238500005230308 0.05444999679178 0.00564999974519014 16 -0.0880967304110527 -0.239095762372017 -0.0148604745045304 0.255242347717285
-0.0210500004813075 0.05444999679178 0.00564999974519014 16 -0.10481783002615 -0.0466734617948532 0.0475392453372478 0.124198108911514
-0.0182500004395843 0.05444999679178 0.00564999974519014 16 -0.0951425358653069 0.166037887334824 0.0595569349825382 0.200418844819069
-0.015450000397861 0.05444999679178 0.00564999974519014 16 -0.0716561526060104 0.350319176912308 0.0448465086519718 0.360373884439468
-0.0126500003561378 0.05444999679178 0.00564999974519014 16 -0.0347519591450691 0.457936197519302 -0.00493846228346229 0.459279477596283
-0.0098500003144145 0.05444999679178 0.00564999974519014 16 0.00810321979224682 0.475017249584198 -0.0633213371038437 0.479287654161453
-0.00705000027269125 0.05444999679178 0.00564999974519014 16 0.0464847795665264 0.40714219212532 -0.111561216413975 0.424701660871506
-0.004250000230968 0.05444999679178 0.00564999974519014 16 0.0739166736602783 0.288220226764679 -0.136684641242027 0.327440470457077
-0.00145000018924474 0.05444999679178 0.00564999974519014 16 0.0828459784388542 0.158392935991287 -0.135869532823563 0.224526852369308
0.0013499998524785 0.05444999679178 0.00564999974519014 16 0.0838725566864014 0.0531384833157063 -0.130736365914345 0.164165467023849
0.00414999989420176 0.05444999679178 0.00564999974519014 16 0.083472840487957 -0.0170455444604158 -0.136829420924187 0.161184847354889
0.006949999935925 0.05444999679178 0.00564999974519014 16 0.0923429578542709 -0.0700825452804565 -0.165365278720856 0.201951637864113
0.00974999997764826 0.05444999679178 0.00564999974519014 16 0.105554319918156 -0.1304801851511 -0.209671348333359 0.268568158149719
0.0125500000193715 0.05444999679178 0.00564999974519014 16 0.11698592454195 -0.219757676124573 -0.254220843315125 0.355819314718246
0.0153500000610948 0.05444999679178 0.00564999974519014 16 0.112141311168671 -0.323825478553772 -0.277998745441437 0.441273063421249
0.018150000102818 0.05444999679178 0.00564999974519014 16 0.0860626697540283 -0.414138525724411 -0.268095701932907 0.500792145729065
0.0209500001445413 0.05444999679178 0.00564999974519014 16 0.0384385287761688 -0.44413286447525 -0.22217857837677 0.498091191053391
0.0237500001862645 0.05444999679178 0.00564999974519014 16 -0.0169686526060104 -0.38628488779068 -0.156604304909706 0.417167663574219
0.0265500002279878 0.05444999679178 0.00564999974519014 16 -0.0651038214564323 -0.240910649299622 -0.0874381139874458 0.264427453279495
0.029350000269711 0.05444999679178 0.00564999974519014 16 -0.0947550535202026 -0.0489866025745869 -0.0342299938201904 0.11202634125948
0.0321500003114343 0.05444999679178 0.00564999974519014 16 -0.107691913843155 0.122318863868713 0.00150998553726822 0.162977710366249
0.0349500003531575 0.05444999679178 0.00564999974519014 16 -0.109847724437714 0.202295497059822 0.0125035820528865 0.230534881353378
-0.0350500006899238 0.0516499967500567 0.00564999974519014 16 0.0312890484929085 -0.389931589365005 -0.236084178090096 0.456904143095016
-0.0322500006482005 0.0516499967500567 0.00564999974519014 16 0.0264624617993832 -0.400234460830688 -0.223037257790565 0.458948254585266
-0.0294500006064773 0.0516499967500567 0.00564999974519014 16 0.025876984000206 -0.40511828660965 -0.208281219005585 0.456258147954941
-0.026650000564754 0.0516499967500567 0.00564999974519014 16 0.0266002602875233 -0.353592813014984 -0.168065622448921 0.392404764890671
-0.0238500005230308 0.0516499967500567 0.00564999974519014 16 0.0385563895106316 -0.22769421339035 -0.137394994497299 0.268716633319855
-0.0210500004813075 0.0516499967500567 0.00564999974519014 16 0.046569537371397 -0.0337982103228569 -0.0982415974140167 0.113852761685848
-0.0182500004395843 0.0516499967500567 0.00564999974519014 16 0.0501999594271183 0.179181218147278 -0.0819952189922333 0.20334492623806
-0.015450000397861 0.0516499967500567 0.00564999974519014 16 0.041277639567852 0.361917674541473 -0.0664645284414291 0.370277971029282
-0.0126500003561378 0.0516499967500567 0.00564999974519014 16 0.0281519200652838 0.470775127410889 -0.0666108950972557 0.476296931505203
-0.0098500003144145 0.0516499967500567 0.00564999974519014 16 0.0172580033540726 0.48854649066925 -0.0686923190951347 0.493653893470764
-0.00705000027269125 0.0516499967500567 0.00564999974519014 16 0.0113423932343721 0.421936064958572 -0.0732952579855919 0.428405076265335
-0.004250000230968 0.0516499967500567 0.00564999974519014 16 0.00827822275459766 0.299800992012024 -0.0696759223937988 0.307902425527573
-0.00145000018924474 0.0516499967500567 0.00564999974519014 16 0.00145624671131372 0.164422377943993 -0.0573638007044792 0.174147769808769
0.0013499998524785 0.0516499967500567 0.00564999974519014 16 -0.00593939935788512 0.0497786477208138 -0.0431224778294563 0.0661266818642616
0.00414999989420176 0.0516499967500567 0.00564999974519014 16 -0.00857729278504848 -0.0274215191602707 -0.0429981164634228 0.0517140962183475
0.006949999935925 0.0516499967500567 0.00564999974519014 16 0.00111561559606344 -0.0849724858999252 -0.06313855946064 0.105868063867092
0.00974999997764826 0.0516499967500567 0.00564999974519014 16 0.0200512669980526 -0.143904149532318 -0.107003644108772 0.180444553494453
0.0125500000193715 0.0516499967500567 0.00564999974519014 16 0.0434336327016354 -0.229607164859772 -0.159217551350594 0.282765209674835
0.0153500000610948 0.0516499967500567 0.00564999974519014 16 0.0618816278874874 -0.329497814178467 -0.209332078695297 0.395244300365448
0.018150000102818 0.0516499967500567 0.00564999974519014 16 0.074016235768795 -0.419155716896057 -0.243274882435799 0.490257680416107
0.0209500001445413 0.0516499967500567 0.00564999974519014 16 0.0784817636013031 -0.451340317726135 -0.260930299758911 0.527211606502533
0.0237500001862645 0.0516499967500567 0.00564999974519014 16 0.0806997641921043 -0.397914260625839 -0.264961421489716 0.484822392463684
0.0265500002279878 0.0516499967500567 0.00564999974519014 16 0.0800548568367958 -0.25500950217247 -0.255785405635834 0.369952410459518
0.029350000269711 0.0516499967500567 0.00564999974519014 16 0.078749492764473 -0.063509963452816 -0.239762961864471 0.260233134031296
0.0321500003114343 0.0516499967500567 0.00564999974519014 16 0.0738392546772957 0.110484205186367 -0.218284741044044 0.255552768707275
0.0349500003531575 0.0516499967500567 0.00564999974519014 16 0.0711266621947289 0.191374242305756 -0.208955600857735 0.29213958978653
-0.0350500006899238 0.0488499967083335 0.00564999974519014 16 -0.0137217119336128 -0.356314390897751 -0.159522011876106 0.390634775161743
-0.0322500006482005 0.0488499967083335 0.00564999974519014 16 0.000719747273251414 -0.361694723367691 -0.168695464730263 0.399101197719574
-0.0294500006064773 0.0488499967083335 0.00564999974519014 16 0.0398003719747066 -0.356307774782181 -0.194021210074425 0.407656133174896
-0.026650000564754 0.0488499967083335 0.00564999974519014 16 0.0875479355454445 -0.300942748785019 -0.205199584364891 0.37461718916893
-0.0238500005230308 0.0488499967083335 0.00564999974519014 16 0.136089041829109 -0.182054981589317 -0.215320572257042 0.313092947006226
-0.0210500004813075 0.0488499967083335 0.00564999974519014 16 0.163681045174599 -0.00972938723862171 -0.204859301447868 0.262399464845657
-0.0182500004395843 0.0488499967083335 0.00564999974519014 16 0.16428230702877 0.176423415541649 -0.192800730466843 0.308684319257736
-0.015450000397861 0.0488499967083335 0.00564999974519014 16 0.133623018860817 0.333324760198593 -0.161296024918556 0.393671065568924
-0.0126500003561378 0.0488499967083335 0.00564999974519014 16 0.084451399743557 0.427700370550156 -0.126313030719757 0.453888356685638
-0.0098500003144145 0.0488499967083335 0.00564999974519014 16 0.031507346779108 0.443084597587585 -0.0835350379347801 0.45198979973793
-0.00705000027269125 0.0488499967083335 0.00564999974519014 16 -0.0118953231722116 0.387123256921768 -0.0469817481935024 0.390145093202591
-0.004250000230968 0.0488499967083335 0.00564999974519014 16 -0.0439593754708767 0.279165595769882 -0.0113948918879032 0.282835096120834
-0.00145000018924474 0.0488499967083335 0.00564999974519014 16 -0.0676645860075951 0.156036615371704 0.0210380628705025 0.171372458338737
0.0013499998524785 0.0488499967083335 0.00564999974519014 16 -0.0864672064781189 0.0440852120518684 0.0518068410456181 0.110018327832222
0.00414999989420176 0.0488499967083335 0.00564999974519014 16 -0.0939860865473747 -0.0359340161085129 0.064053513109684 0.11927904933691
0.006949999935925 0.0488499967083335 0.00564999974519014 16 -0.0853047296404839 -0.0974580645561218 0.0515166148543358 0.139387711882591
0.00974999997764826 0.0488499967083335 0.00564999974519014 16 -0.0594225227832794 -0.15338759124279 0.00428789667785168 0.164551436901093
0.0125500000193715 0.0488499967083335 0.00564999974519014 16 -0.0239991508424282 -0.226820513606071 -0.0593801401555538 0.235689431428909
0.0153500000610948 0.0488499967083335 0.00564999974519014 16 0.014750849455595 -0.307030320167542 -0.133104249835014 0.334965586662292
0.018150000102818 0.0488499967083335 0.00564999974519014 16 0.0564238801598549 -0.378068834543228 -0.203859761357307 0.433218777179718
0.0209500001445413 0.0488499967083335 0.00564999974519014 16 0.102047219872475 -0.402235805988312 -0.275620996952057 0.498170882463455
0.0237500001862645 0.0488499967083335 0.00564999974519014 16 0.150721818208694 -0.358638197183609 -0.342173755168915 0.518093883991241
0.0265500002279878 0.0488499967083335 0.00564999974519014 16 0.190909296274185 -0.238643303513527 -0.390232115983963 0.49565926194191
0.029350000269711 0.0488499967083335 0.00564999974519014 16 0.215671092271805 -0.0746112540364265 -0.411674737930298 0.470698356628418
0.0321500003114343 0.0488499967083335 0.00564999974519014 16 0.221140623092651 0.078995868563652 -0.406809777021408 0.469720870256424
0.0349500003531575 0.0488499967083335 0.00564999974519014 16 0.220000550150871 0.151806011795998 -0.399760544300079 0.480888545513153
-0.0350500006899238 0.0460499966666102 0.00564999974519014 16 -0.0389538519084454 -0.291212111711502 -0.106070898473263 0.312366664409637
-0.0322500006482005 0.0460499966666102 0.00564999974519014 16 -0.0165171567350626 -0.289474457502365 -0.121584042906761 0.314405709505081
-0.0294500006064773 0.0460499966666102 0.00564999974519014 16 0.0373422652482986 -0.273120939731598 -0.161030501127243 0.319249600172043
-0.026650000564754 0.0460499966666102 0.00564999974519014 16 0.102900080382824 -0.219592437148094 -0.196271434426308 0.311980366706848
-0.0238500005230308 0.0460499966666102 0.00564999974519014 16 0.163461863994598 -0.120794422924519 -0.226711556315422 0.304481863975525
-0.0210500004813075 0.0460499966666102 0.00564999974519014 16 0.198032379150391 0.0134049775078893 -0.236310079693794 0.308608114719391
-0.0182500004395843 0.0460499966666102 0.00564999974519014 16 0.198239684104919 0.154642567038536 -0.232470095157623 0.342426121234894
-0.015450000397861 0.0460499966666102 0.00564999974519014 16 0.163431435823441 0.272364258766174 -0.200773030519485 0.375768452882767
-0.0126500003561378 0.0460499966666102 0.00564999974519014 16 0.104857802391052 0.343515306711197 -0.150656625628471 0.389480859041214
-0.0098500003144145 0.0460499966666102 0.00564999974519014 16 0.0392187647521496 0.356629014015198 -0.0865743085741997 0.369076520204544
-0.00705000027269125 0.0460499966666102 0.00564999974519014 16 -0.0178937390446663 0.317199975252151 -0.0267358291894197 0.318827241659164
-0.004250000230968 0.0460499966666102 0.00564999974519014 16 -0.0620461590588093 0.235827282071114 0.025218864902854 0.245153471827507
-0.00145000018924474 0.0460499966666102 0.00564999974519014 16 -0.0934656858444214 0.138101622462273 0.0693708062171936 0.180610626935959
0.0013499998524785 0.0460499966666102 0.00564999974519014 16 -0.117953598499298 0.040841493755579 0.107479006052017 0.164720416069031
0.00414999989420176 0.0460499966666102 0.00564999974519014 16 -0.128637611865997 -0.0363069251179695 0.126280426979065 0.18388195335865
0.006949999935925 0.0460499966666102 0.00564999974519014 16 -0.123311258852482 -0.0992933139204979 0.118648827075958 0.197844311594963
0.00974999997764826 0.0460499966666102 0.00564999974519014 16 -0.0983231365680695 -0.15102656185627 0.0748712122440338 0.195146515965462
0.0125500000193715 0.0460499966666102 0.00564999974519014 16 -0.0615951791405678 -0.20687173306942 0.0120667079463601 0.216183915734291
0.0153500000610948 0.0460499966666102 0.00564999974519014 16 -0.0164872128516436 -0.259232550859451 -0.0669310986995697 0.26824077963829
0.018150000102818 0.0460499966666102 0.00564999974519014 16 0.0372138135135174 -0.302605509757996 -0.154136165976524 0.341632723808289
0.0209500001445413 0.0460499966666102 0.00564999974519014 16 0.100957378745079 -0.313207566738129 -0.253605753183365 0.415460288524628
0.0237500001862645 0.0460499966666102 0.00564999974519014 16 0.170934110879898 -0.280496746301651 -0.354178875684738 0.483052343130112
0.0265500002279878 0.0460499966666102 0.00564999974519014 16 0.230016231536865 -0.19461852312088 -0.433107405900955 0.5276038646698
0.029350000269711 0.0460499966666102 0.00564999974519014 16 0.267344325780869 -0.0771889016032219 -0.476749241352081 0.552015364170074
0.0321500003114343 0.0460499966666102 0.00564999974519014 16 0.278579086065292 0.0354204140603542 -0.485948771238327 0.561254978179932
0.0349500003531575 0.0460499966666102 0.00564999974519014 16 0.27898907661438 0.0892945304512978 -0.483770906925201 0.56554639339447
-0.0350500006899238 0.043249996624887 0.00564999974519014 16 -0.0391329005360603 -0.217859014868736 -0.0627967864274979 0.230081230401993
-0.0322500006482005 0.043249996624887 0.00564999974519014 16 -0.0176880825310946 -0.211992546916008 -0.0807590708136559 0.227542817592621
-0.0294500006064773 0.043249996624887 0.00564999974519014 16 0.030410211533308 -0.190710484981537 -0.120957747101784 0.227872878313065
-0.026650000564754 0.043249996624887 0.00564999974519014 16 0.0868314877152443 -0.143454760313034 -0.160095989704132 0.231839820742607
-0.0238500005230308 0.043249996624887 0.00564999974519014 16 0.135460525751114 -0.067006453871727 -0.192892178893089 0.245044514536858
-0.0210500004813075 0.043249996624887 0.00564999974519014 16 0.163177311420441 0.0309960711747408 -0.208388924598694 0.266483634710312
-0.0182500004395843 0.043249996624887 0.00564999974519014 16 0.16345027089119 0.130403995513916 -0.209986537694931 0.296336859464645
-0.015450000397861 0.043249996624887 0.00564999974519014 16 0.137405678629875 0.212371334433556 -0.188399910926819 0.315398842096329
-0.0126500003561378 0.043249996624887 0.00564999974519014 16 0.0901159197092056 0.260590761899948 -0.145167127251625 0.31161180138588
-0.0098500003144145 0.043249996624887 0.00564999974519014 16 0.0348442383110523 0.270439445972443 -0.0851589143276215 0.285663545131683
-0.00705000027269125 0.043249996624887 0.00564999974519014 16 -0.0162046626210213 0.244477704167366 -0.0212655626237392 0.245935276150703
-0.004250000230968 0.043249996624887 0.00564999974519014 16 -0.0566326156258583 0.188514322042465 0.0342597365379333 0.199796468019485
-0.00145000018924474 0.043249996624887 0.00564999974519014 16 -0.0852246135473251 0.116194099187851 0.080612026154995 0.165113911032677
0.0013499998524785 0.043249996624887 0.00564999974519014 16 -0.10736721009016 0.0376011095941067 0.115390188992023 0.162038445472717
0.00414999989420176 0.043249996624887 0.00564999974519014 16 -0.117563784122467 -0.0322255119681358 0.131767496466637 0.179505988955498
0.006949999935925 0.043249996624887 0.00564999974519014 16 -0.113918758928776 -0.0924497991800308 0.12459609657526 0.192480221390724
0.00974999997764826 0.043249996624887 0.00564999974519014 16 -0.0922255218029022 -0.139745131134987 0.0869377255439758 0.188659518957138
0.0125500000193715 0.043249996624887 0.00564999974519014 16 -0.0587750934064388 -0.180698841810226 0.0331208109855652 0.192882269620895
0.0153500000610948 0.043249996624887 0.00564999974519014 16 -0.0168249942362309 -0.210185900330544 -0.0374322608113289 0.21415501832962
0.018150000102818 0.043249996624887 0.00564999974519014 16 0.0341588966548443 -0.229436948895454 -0.119854912161827 0.261100262403488
0.0209500001445413 0.043249996624887 0.00564999974519014 16 0.0935371369123459 -0.227788895368576 -0.217058762907982 0.328255206346512
0.0237500001862645 0.043249996624887 0.00564999974519014 16 0.158114776015282 -0.203656017780304 -0.317177802324295 0.408751517534256
0.0265500002279878 0.043249996624887 0.00564999974519014 16 0.211611270904541 -0.148250192403793 -0.398454755544662 0.474893301725388
0.029350000269711 0.043249996624887 0.00564999974519014 16 0.246394038200378 -0.073835089802742 -0.447537302970886 0.516189157962799
0.0321500003114343 0.043249996624887 0.00564999974519014 16 0.257936209440231 -0.000370947091141716 -0.464325219392776 0.531158328056335
0.0349500003531575 0.043249996624887 0.00564999974519014 16 0.260278046131134 0.0354535058140755 -0.466571420431137 0.535434901714325
-0.0350500006899238 0.0404499965831637 0.00564999974519014 16 -0.0276939794421196 -0.160956978797913 -0.051020011305809 0.171105667948723
-0.0322500006482005 0.0404499965831637 0.00564999974519014 16 -0.0129168732091784 -0.15311174094677 -0.0641198977828026 0.166497483849525
-0.0294500006064773 0.0404499965831637 0.00564999974519014 16 0.0187300555408001 -0.131087481975555 -0.093935452401638 0.162353351712227
-0.026650000564754 0.0404499965831637 0.00564999974519014 16 0.0549400672316551 -0.0913668721914291 -0.123246148228645 0.162959903478622
-0.0238500005230308 0.0404499965831637 0.00564999974519014 16 0.0840035155415535 -0.0333019085228443 -0.147172659635544 0.172700315713882
-0.0210500004813075 0.0404499965831637 0.00564999974519014 16 0.0992667675018311 0.0382607728242874 -0.15765792131424 0.190194100141525
-0.0182500004395843 0.0404499965831637 0.00564999974519014 16 0.0978289395570755 0.108982913196087 -0.158793956041336 0.216016888618469
-0.015450000397861 0.0404499965831637 0.00564999974519014 16 0.082114651799202 0.16729699075222 -0.144427716732025 0.235776305198669
-0.0126500003561378 0.0404499965831637 0.00564999974519014 16 0.0529498010873795 0.200874119997025 -0.11220733076334 0.236102893948555
-0.0098500003144145 0.0404499965831637 0.00564999974519014 16 0.0173909403383732 0.208790346980095 -0.0654946193099022 0.219511732459068
-0.00705000027269125 0.0404499965831637 0.00564999974519014 16 -0.0172111373394728 0.190909013152122 -0.0124804954975843 0.192089140415192
-0.004250000230968 0.0404499965831637 0.00564999974519014 16 -0.0442833490669727 0.151582598686218 0.0307747852057219 0.160889372229576
-0.00145000018924474 0.0404499965831637 0.00564999974519014 16 -0.0615740045905113 0.0972948595881462 0.0625620558857918 0.131040677428246
0.0013499998524785 0.0404499965831637 0.00564999974519014 16 -0.072873480618 0.0355457738041878 0.0792290046811104 0.113363489508629
0.00414999989420176 0.0404499965831637 0.00564999974519014 16 -0.0764433667063713 -0.0241064541041851 0.0817039608955383 0.114456303417683
0.006949999935925 0.0404499965831637 0.00564999974519014 16 -0.0720341727137566 -0.0777046382427216 0.0724457576870918 0.128356218338013
0.00974999997764826 0.0404499965831637 0.00564999974519014 16 -0.0569052584469318 -0.120242953300476 0.0477406159043312 0.141335561871529
0.0125500000193715 0.0404499965831637 0.00564999974519014 16 -0.0332718305289745 -0.151635453104973 0.0166860148310661 0.156136959791183
0.0153500000610948 0.0404499965831637 0.00564999974519014 16 -0.00225615059025586 -0.168684989213943 -0.0304059572517872 0.171418309211731
0.018150000102818 0.0404499965831637 0.00564999974519014 16 0.0372503064572811 -0.174550160765648 -0.0911754295229912 0.200420320034027
0.0209500001445413 0.0404499965831637 0.00564999974519014 16 0.0830764025449753 -0.166929796338081 -0.170205384492874 0.252462118864059
0.0237500001862645 0.0404499965831637 0.00564999974519014 16 0.131529256701469 -0.148320838809013 -0.251367807388306 0.320132464170456
0.0265500002279878 0.0404499965831637 0.00564999974519014 16 0.169401615858078 -0.113380007445812 -0.319058477878571 0.378616213798523
0.029350000269711 0.0404499965831637 0.00564999974519014 16 0.193043231964111 -0.0697530657052994 -0.359771579504013 0.414206176996231
0.0321500003114343 0.0404499965831637 0.00564999974519014 16 0.199603855609894 -0.0266528744250536 -0.377392441034317 0.427758276462555
0.0349500003531575 0.0404499965831637 0.00564999974519014 16 0.20110772550106 -0.00624022213742137 -0.38077774643898 0.4306680560112
-0.0350500006899238 0.0376499965414405 0.00564999974519014 16 -0.00739769730716944 -0.125646635890007 -0.0500714853405952 0.135458320379257
-0.0322500006482005 0.0376499965414405 0.00564999974519014 16 0.000905508873984218 -0.117490485310555 -0.0579809062182903 0.131021440029144
-0.0294500006064773 0.0376499965414405 0.00564999974519014 16 0.0181932430714369 -0.0963456928730011 -0.077154241502285 0.124764829874039
-0.026650000564754 0.0376499965414405 0.00564999974519014 16 0.0357423052191734 -0.0623496919870377 -0.0946185067296028 0.118817754089832
-0.0238500005230308 0.0376499965414405 0.00564999974519014 16 0.0470141470432281 -0.0155316647142172 -0.108812794089317 0.119548261165619
-0.0210500004813075 0.0376499965414405 0.00564999974519014 16 0.0496511496603489 0.0405340082943439 -0.112379498779774 0.129373073577881
-0.0182500004395843 0.0376499965414405 0.00564999974519014 16 0.0451989509165287 0.0959681645035744 -0.111419223248959 0.153841078281403
-0.015450000397861 0.0376499965414405 0.00564999974519014 16 0.035063847899437 0.141719624400139 -0.101578637957573 0.177854284644127
-0.0126500003561378 0.0376499965414405 0.00564999974519014 16 0.0187177676707506 0.168021589517593 -0.0811616256833076 0.187533512711525
-0.0098500003144145 0.0376499965414405 0.00564999974519014 16 -0.00200424622744322 0.173976436257362 -0.0504548810422421 0.181156039237976
-0.00705000027269125 0.0376499965414405 0.00564999974519014 16 -0.0217132475227118 0.158738255500793 -0.0133682526648045 0.160773158073425