TITLE="DynamicStudio Exported Data"
VARIABLES= "X (m)[m]" "Y (m)[m]" "Z (m)[m]" "Status[-]" "U[-]" "V[-]" "W[-]" "Length[-]"
ZONE T="DynamicStudio Data" F=POINT
-0.0350500006899238 0.0600499968752265 0.00564999974519014 16 0.251874655485153 -0.214890420436859 -0.396375745534897 0.516461491584778
-0.0322500006482005 0.0600499968752265 0.00564999974519014 16 0.219915524125099 -0.239800915122032 -0.354000329971313 0.480815500020981
-0.0294500006064773 0.0600499968752265 0.00564999974519014 16 0.14235445857048 -0.289905369281769 -0.25194838643074 0.409619212150574
-0.026650000564754 0.0600499968752265 0.00564999974519014 16 0.0345862172544003 -0.325729936361313 -0.1078832000494 0.344869524240494
-0.0238500005230308 0.0600499968752265 0.00564999974519014 16 -0.0869689732789993 -0.320609867572784 0.0464579910039902 0.335429042577744
-0.0210500004813075 0.0600499968752265 0.00564999974519014 16 -0.197587341070175 -0.256778627634048 0.184057712554932 0.372630208730698
-0.0182500004395843 0.0600499968752265 0.00564999974519014 16 -0.276648610830307 -0.141063064336777 0.277032732963562 0.416149467229843
-0.015450000397861 0.0600499968752265 0.00564999974519014 16 -0.30178040266037 0.0062484797090292 0.316538006067276 0.437386304140091
-0.0126500003561378 0.0600499968752265 0.00564999974519014 16 -0.272919565439224 0.154857665300369 0.298324733972549 0.432970702648163
-0.0098500003144145 0.0600499968752265 0.00564999974519014 16 -0.200859412550926 0.272861182689667 0.241058960556984 0.415821045637131
-0.00705000027269125 0.0600499968752265 0.00564999974519014 16 -0.109392963349819 0.341142117977142 0.155759572982788 0.390647917985916
-0.004250000230968 0.0600499968752265 0.00564999974519014 16 -0.0156891252845526 0.352970808744431 0.0713198706507683 0.360445648431778
-0.00145000018924474 0.0600499968752265 0.00564999974519014 16 0.0679327771067619 0.3181531727314 -0.00825238879770041 0.325429558753967
0.0013499998524785 0.0600499968752265 0.00564999974519014 16 0.136006295681 0.250451356172562 -0.0708087012171745 0.293662160634995
0.00414999989420176 0.0600499968752265 0.00564999974519014 16 0.185199066996574 0.167646169662476 -0.126699611544609 0.280101269483566
0.006949999935925 0.0600499968752265 0.00564999974519014 16 0.21477547287941 0.0825885459780693 -0.173410966992378 0.288133174180984
0.00974999997764826 0.0600499968752265 0.00564999974519014 16 0.226305186748505 0.00356778712011874 -0.20972652733326 0.308564394712448
0.0125500000193715 0.0600499968752265 0.00564999974519014 16 0.222764506936073 -0.0702273473143578 -0.230838999152184 0.328393906354904
0.0153500000610948 0.0600499968752265 0.00564999974519014 16 0.201993614435196 -0.145946368575096 -0.230640351772308 0.339553743600845
0.018150000102818 0.0600499968752265 0.00564999974519014 16 0.161632895469666 -0.226785436272621 -0.207588076591492 0.347346574068069
0.0209500001445413 0.0600499968752265 0.00564999974519014 16 0.0928827524185181 -0.306305587291718 -0.150125771760941 0.353536516427994
0.0237500001862645 0.0600499968752265 0.00564999974519014 16 0.00058338139206171 -0.360253840684891 -0.0550579577684402 0.364437282085419
0.0265500002279878 0.0600499968752265 0.00564999974519014 16 -0.10509766638279 -0.364691227674484 0.0681160464882851 0.385596930980682
0.029350000269711 0.0600499968752265 0.00564999974519014 16 -0.201077610254288 -0.314268112182617 0.193732365965843 0.420391321182251
0.0321500003114343 0.0600499968752265 0.00564999974519014 16 -0.268209129571915 -0.24208952486515 0.286583989858627 0.461165755987167
0.0349500003531575 0.0600499968752265 0.00564999974519014 16 -0.294544905424118 -0.201993927359581 0.32648754119873 0.483892917633057
-0.0350500006899238 0.0572499968335032 0.00564999974519014 16 0.217911809682846 -0.226692125201225 -0.371373504400253 0.486613988876343
-0.0322500006482005 0.0572499968335032 0.00564999974519014 16 0.190751805901527 -0.255241334438324 -0.332801818847656 0.460750967264175
-0.0294500006064773 0.0572499968335032 0.00564999974519014 16 0.125785529613495 -0.311177432537079 -0.243428781628609 0.414621472358704
-0.026650000564754 0.0572499968335032 0.00564999974519014 16 0.0359396860003471 -0.352516412734985 -0.115478858351707 0.372685968875885
-0.0238500005230308 0.0572499968335032 0.00564999974519014 16 -0.0653589889407158 -0.34897643327713 0.0207020044326782 0.355647176504135
-0.0210500004813075 0.0572499968335032 0.00564999974519014 16 -0.158406481146812 -0.281404435634613 0.144008502364159 0.353580981492996
-0.0182500004395843 0.0572499968335032 0.00564999974519014 16 -0.226136907935143 -0.156651437282562 0.226891189813614 0.356591045856476
-0.015450000397861 0.0572499968335032 0.00564999974519014 16 -0.249423906207085 0.00361215835437179 0.26491042971611 0.363872051239014
-0.0126500003561378 0.0572499968335032 0.00564999974519014 16 -0.227959781885147 0.16540265083313 0.253630310297012 0.379014551639557
-0.0098500003144145 0.0572499968335032 0.00564999974519014 16 -0.170019149780273 0.293970078229904 0.210173025727272 0.399371534585953
-0.00705000027269125 0.0572499968335032 0.00564999974519014 16 -0.0955297723412514 0.367202609777451 0.142468452453613 0.405291199684143
-0.004250000230968 0.0572499968335032 0.00564999974519014 16 -0.0180845446884632 0.378849446773529 0.0734463706612587 0.38632670044899
-0.00145000018924474 0.0572499968335032 0.00564999974519014 16 0.0524464100599289 0.339616030454636 0.00569103425368667 0.343688905239105
0.0013499998524785 0.0572499968335032 0.00564999974519014 16 0.110802926123142 0.265570402145386 -0.0502452477812767 0.29211214184761
0.00414999989420176 0.0572499968335032 0.00564999974519014 16 0.15308241546154 0.177086725831032 -0.10139787197113 0.255098938941956
0.006949999935925 0.0572499968335032 0.00564999974519014 16 0.177935317158699 0.0876962393522263 -0.144252225756645 0.245275989174843
0.00974999997764826 0.0572499968335032 0.00564999974519014 16 0.186799898743629 0.00660074921324849 -0.176640093326569 0.257176011800766
0.0125500000193715 0.0572499968335032 0.00564999974519014 16 0.183280363678932 -0.0699863508343697 -0.193550229072571 0.27559295296669
0.0153500000610948 0.0572499968335032 0.00564999974519014 16 0.165793433785439 -0.14953401684761 -0.19115974009037 0.293921649456024
0.018150000102818 0.0572499968335032 0.00564999974519014 16 0.132416993379593 -0.237324222922325 -0.168560266494751 0.319796204566956
0.0209500001445413 0.0572499968335032 0.00564999974519014 16 0.0760367810726166 -0.324298113584518 -0.119555078446865 0.353898674249649
0.0237500001862645 0.0572499968335032 0.00564999974519014 16 0.000176392146386206 -0.384807407855988 -0.0416051186621189 0.387050062417984
0.0265500002279878 0.0572499968335032 0.00564999974519014 16 -0.0857314839959145 -0.391487687826157 0.0575047060847282 0.404869496822357
0.029350000269711 0.0572499968335032 0.00564999974519014 16 -0.163194820284843 -0.338961213827133 0.159000158309937 0.408421725034714
0.0321500003114343 0.0572499968335032 0.00564999974519014 16 -0.216735154390335 -0.26222175359726 0.235202059149742 0.413587212562561
0.0349500003531575 0.0572499968335032 0.00564999974519014 16 -0.238084733486176 -0.218526735901833 0.268429726362228 0.420110464096069
-0.0350500006899238 0.05444999679178 0.00564999974519014 16 0.132005244493484 -0.24995444715023 -0.288936734199524 0.404211640357971
-0.0322500006482005 0.05444999679178 0.00564999974519014 16 0.116738632321358 -0.283562570810318 -0.262913137674332 0.403929382562637
-0.0294500006064773 0.05444999679178 0.00564999974519014 16 0.0815809145569801 -0.347869217395782 -0.204861089587212 0.411869525909424
-0.026650000564754 0.05444999679178 0.00564999974519014 16 0.0342612564563751 -0.396746575832367 -0.117648079991341 0.415238201618195
-0.0238500005230308 0.05444999679178 0.00564999974519014 16 -0.0182060599327087 -0.394178241491318 -0.0293297227472067 0.395686954259872
-0.0210500004813075 0.05444999679178 0.00564999974519014 16 -0.0680258497595787 -0.31988587975502 0.0538382679224014 0.3314408659935
-0.0182500004395843 0.05444999679178 0.00564999974519014 16 -0.108166709542274 -0.180706143379211 0.109993666410446 0.237599149346352
-0.015450000397861 0.05444999679178 0.00564999974519014 16 -0.126403197646141 -0.000677561445627362 0.14370197057724 0.191385701298714
-0.0126500003561378 0.05444999679178 0.00564999974519014 16 -0.121273346245289 0.18135729432106 0.147811472415924 0.263525933027267
-0.0098500003144145 0.05444999679178 0.00564999974519014 16 -0.0951181873679161 0.326897323131561 0.134979441761971 0.366235971450806
-0.00705000027269125 0.05444999679178 0.00564999974519014 16 -0.0593025647103786 0.40869277715683 0.105286195874214 0.426182776689529
-0.004250000230968 0.05444999679178 0.00564999974519014 16 -0.020104743540287 0.420785486698151 0.072423905134201 0.427445709705353
-0.00145000018924474 0.05444999679178 0.00564999974519014 16 0.0181689318269491 0.374984115362167 0.0343402028083801 0.376991301774979
0.0013499998524785 0.05444999679178 0.00564999974519014 16 0.0521850846707821 0.291295558214188 -0.00125867663882673 0.295935750007629
0.00414999989420176 0.05444999679178 0.00564999974519014 16 0.077329695224762 0.194168627262115 -0.037130206823349 0.212273374199867
0.006949999935925 0.05444999679178 0.00564999974519014 16 0.0913117527961731 0.097732812166214 -0.0676609724760056 0.149891778826714
0.00974999997764826 0.05444999679178 0.00564999974519014 16 0.0940661355853081 0.0129827111959457 -0.0882299467921257 0.129620641469955
0.0125500000193715 0.05444999679178 0.00564999974519014 16 0.0906965881586075 -0.0683603063225746 -0.0960210710763931 0.148724749684334
0.0153500000610948 0.05444999679178 0.00564999974519014 16 0.0802593305706978 -0.154006168246269 -0.0896429345011711 0.195436224341393
0.018150000102818 0.05444999679178 0.00564999974519014 16 0.0636257827281952 -0.251641154289246 -0.0742076709866524 0.269959807395935
0.0209500001445413 0.05444999679178 0.00564999974519014 16 0.0360568799078465 -0.348612040281296 -0.0497297495603561 0.353982329368591
0.0237500001862645 0.05444999679178 0.00564999974519014 16 -0.000102446669188794 -0.417257487773895 -0.0150652546435595 0.417529374361038
0.0265500002279878 0.05444999679178 0.00564999974519014 16 -0.0397867485880852 -0.427440047264099 0.0286031290888786 0.430239588022232
0.029350000269711 0.05444999679178 0.00564999974519014 16 -0.0744029432535172 -0.373876452445984 0.0756082311272621 0.388633519411087
0.0321500003114343 0.05444999679178 0.00564999974519014 16 -0.0969962328672409 -0.293577045202255 0.112288475036621 0.328944444656372
0.0349500003531575 0.05444999679178 0.00564999974519014 16 -0.105719335377216 -0.247212544083595 0.128761246800423 0.298110842704773
-0.0350500006899238 0.0516499967500567 0.00564999974519014 16 0.0182833150029182 -0.265626192092896 -0.177517741918564 0.320006400346756
-0.0322500006482005 0.0516499967500567 0.00564999974519014 16 0.0172526594251394 -0.30041441321373 -0.166790783405304 0.344043076038361
-0.0294500006064773 0.0516499967500567 0.00564999974519014 16 0.0190992932766676 -0.36441108584404 -0.150758981704712 0.394827157258987
-0.026650000564754 0.0516499967500567 0.00564999974519014 16 0.0237246602773666 -0.412411779165268 -0.119010716676712 0.429895222187042
-0.0238500005230308 0.0516499967500567 0.00564999974519014 16 0.0306116491556168 -0.405880033969879 -0.0913062244653702 0.417148053646088
-0.0210500004813075 0.0516499967500567 0.00564999974519014 16 0.0341911539435387 -0.327643901109695 -0.0586353205144405 0.334600746631622
-0.0182500004395843 0.0516499967500567 0.00564999974519014 16 0.0306175872683525 -0.184350669384003 -0.0355869643390179 0.190234154462814
-0.015450000397861 0.0516499967500567 0.00564999974519014 16 0.0223667658865452 -0.000776522676460445 -0.00990186259150505 0.0244728848338127
-0.0126500003561378 0.0516499967500567 0.00564999974519014 16 0.0115025080740452 0.184475347399712 0.0118192685768008 0.185211107134819
-0.0098500003144145 0.0516499967500567 0.00564999974519014 16 0.000599744613282382 0.333587378263474 0.0370347052812576 0.335637390613556
-0.00705000027269125 0.0516499967500567 0.00564999974519014 16 -0.0105042709037662 0.417582422494888 0.0569749474525452 0.421582221984863
-0.004250000230968 0.0516499967500567 0.00564999974519014 16 -0.0195137243717909 0.430830121040344 0.0726682022213936 0.437351167201996
-0.00145000018924474 0.0516499967500567 0.00564999974519014 16 -0.0227399840950966 0.384413450956345 0.075126051902771 0.392345160245895
0.0013499998524785 0.0516499967500567 0.00564999974519014 16 -0.0199431162327528 0.299047529697418 0.06791952252388 0.30731126666069
0.00414999989420176 0.0516499967500567 0.00564999974519014 16 -0.016275392845273 0.200302734971046 0.0541596561670303 0.208132982254028
0.006949999935925 0.0516499967500567 0.00564999974519014 16 -0.0148252109065652 0.101651437580585 0.0409939773380756 0.110604286193848
0.00974999997764826 0.0516499967500567 0.00564999974519014 16 -0.0184381827712059 0.0148734906688333 0.036230556666851 0.043287880718708
0.0125500000193715 0.0516499967500567 0.00564999974519014 16 -0.0201918426901102 -0.0699237659573555 0.0363176539540291 0.0813388973474503
0.0153500000610948 0.0516499967500567 0.00564999974519014 16 -0.0207700692117214 -0.158875957131386 0.042595848441124 0.165793165564537
0.018150000102818 0.0516499967500567 0.00564999974519014 16 -0.0157653298228979 -0.259087800979614 0.0423612967133522 0.263000965118408
0.0209500001445413 0.0516499967500567 0.00564999974519014 16 -0.00875393953174353 -0.356584787368774 0.033691480755806 0.358279854059219
0.0237500001862645 0.0516499967500567 0.00564999974519014 16 0.00247406912967563 -0.42389252781868 0.0128603940829635 0.424094796180725
0.0265500002279878 0.0516499967500567 0.00564999974519014 16 0.0170453172177076 -0.432705134153366 -0.0128943044692278 0.433232665061951
0.029350000269711 0.0516499967500567 0.00564999974519014 16 0.0334994047880173 -0.378958940505981 -0.0341734923422337 0.381968468427658
0.0321500003114343 0.0516499967500567 0.00564999974519014 16 0.0477592274546623 -0.299762487411499 -0.047029085457325 0.307164818048477
0.0349500003531575 0.0516499967500567 0.00564999974519014 16 0.0536663345992565 -0.253941386938095 -0.0502193160355091 0.264363914728165
-0.0350500006899238 0.0488499967083335 0.00564999974519014 16 -0.0836665257811546 -0.262768894433975 -0.0625038221478462 0.282761931419373
-0.0322500006482005 0.0488499967083335 0.00564999974519014 16 -0.0725654065608978 -0.292694866657257 -0.0677156299352646 0.309065401554108
-0.0294500006064773 0.0488499967083335 0.00564999974519014 16 -0.0408422872424126 -0.345475822687149 -0.0890463888645172 0.359097361564636
-0.026650000564754 0.0488499967083335 0.00564999974519014 16 0.00572541821748018 -0.38207545876503 -0.107380986213684 0.396919548511505
-0.0238500005230308 0.0488499967083335 0.00564999974519014 16 0.0604759305715561 -0.367918908596039 -0.132760107517242 0.395786434412003
-0.0210500004813075 0.0488499967083335 0.00564999974519014 16 0.108026348054409 -0.291875153779984 -0.146231219172478 0.343866795301437
-0.0182500004395843 0.0488499967083335 0.00564999974519014 16 0.136444419622421 -0.160416036844254 -0.153343051671982 0.260508120059967
-0.015450000397861 0.0488499967083335 0.00564999974519014 16 0.139473259449005 0.00385081279091537 -0.13774836063385 0.196066901087761
-0.0126500003561378 0.0488499967083335 0.00564999974519014 16 0.119603842496872 0.169223189353943 -0.103941410779953 0.231830507516861
-0.0098500003144145 0.0488499967083335 0.00564999974519014 16 0.0819102227687836 0.303386956453323 -0.0500171519815922 0.3182053565979
-0.00705000027269125 0.0488499967083335 0.00564999974519014 16 0.034801010042429 0.381081759929657 0.00969337113201618 0.382790267467499
-0.004250000230968 0.0488499967083335 0.00564999974519014 16 -0.0130515843629837 0.395732641220093 0.0658712163567543 0.401389688253403
-0.00145000018924474 0.0488499967083335 0.00564999974519014 16 -0.0514427125453949 0.356502830982208 0.105715773999691 0.375388413667679
0.0013499998524785 0.0488499967083335 0.00564999974519014 16 -0.0758946090936661 0.280387103557587 0.128114059567451 0.317474603652954
0.00414999989420176 0.0488499967083335 0.00564999974519014 16 -0.0912378802895546 0.18985053896904 0.139862403273582 0.252841979265213
0.006949999935925 0.0488499967083335 0.00564999974519014 16 -0.100678220391273 0.0966299697756767 0.146199136972427 0.20210799574852
0.00974999997764826 0.0488499967083335 0.00564999974519014 16 -0.109493739902973 0.0120966788381338 0.15698353946209 0.191778615117073
0.0125500000193715 0.0488499967083335 0.00564999974519014 16 -0.109598092734814 -0.0701784044504166 0.161854639649391 0.207686483860016
0.0153500000610948 0.0488499967083335 0.00564999974519014 16 -0.101478762924671 -0.15406696498394 0.162634059786797 0.245935782790184
0.018150000102818 0.0488499967083335 0.00564999974519014 16 -0.0777946636080742 -0.243765249848366 0.141165301203728 0.292234748601913
0.0209500001445413 0.0488499967083335 0.00564999974519014 16 -0.0418779365718365 -0.327568471431732 0.0975601300597191 0.344344079494476
0.0237500001862645 0.0488499967083335 0.00564999974519014 16 0.00839522760361433 -0.382463574409485 0.0268056448549032 0.383493691682816
0.0265500002279878 0.0488499967083335 0.00564999974519014 16 0.0658848360180855 -0.387108862400055 -0.0562625117599964 0.396685719490051
0.029350000269711 0.0488499967083335 0.00564999974519014 16 0.122139185667038 -0.339178621768951 -0.132828161120415 0.384191930294037
0.0321500003114343 0.0488499967083335 0.00564999974519014 16 0.164204433560371 -0.27098274230957 -0.187048062682152 0.367942541837692
0.0349500003531575 0.0488499967083335 0.00564999974519014 16 0.181399554014206 -0.232205048203468 -0.207481205463409 0.360379546880722
-0.0350500006899238 0.0460499966666102 0.00564999974519014 16 -0.134470701217651 -0.237506940960884 -0.00167871976736933 0.2729372382164
-0.0322500006482005 0.0460499966666102 0.00564999974519014 16 -0.118074089288712 -0.258362174034119 -0.0158015266060829 0.284503400325775
-0.0294500006064773 0.0460499966666102 0.00564999974519014 16 -0.0747716277837753 -0.292791277170181 -0.0564198046922684 0.307409703731537
-0.026650000564754 0.0460499966666102 0.00564999974519014 16 -0.0122135672718287 -0.311440289020538 -0.101318441331387 0.327734112739563
-0.0238500005230308 0.0460499966666102 0.00564999974519014 16 0.0605668388307095 -0.289365828037262 -0.15131676197052 0.332110971212387
-0.0210500004813075 0.0460499966666102 0.00564999974519014 16 0.126269727945328 -0.22155499458313 -0.186426892876625 0.315888673067093
-0.0182500004395843 0.0460499966666102 0.00564999974519014 16 0.170694202184677 -0.114453889429569 -0.207783862948418 0.292250454425812
-0.015450000397861 0.0460499966666102 0.00564999974519014 16 0.182944923639297 0.0139178680256009 -0.19981475174427 0.271271973848343
-0.0126500003561378 0.0460499966666102 0.00564999974519014 16 0.163843423128128 0.142102047801018 -0.163182750344276 0.271415323019028
-0.0098500003144145 0.0460499966666102 0.00564999974519014 16 0.118069060146809 0.246177494525909 -0.0974995121359825 0.289913475513458
-0.00705000027269125 0.0460499966666102 0.00564999974519014 16 0.0570520050823689 0.309111595153809 -0.0175263583660126 0.31482070684433
-0.004250000230968 0.0460499966666102 0.00564999974519014 16 -0.00699838995933533 0.323727428913116 0.0610458552837372 0.329507231712341
-0.00145000018924474 0.0460499966666102 0.00564999974519014 16 -0.0608883798122406 0.296493351459503 0.12274955958128 0.326623857021332
0.0013499998524785 0.0460499966666102 0.00564999974519014 16 -0.0976965054869652 0.23757566511631 0.162974283099174 0.304216086864471
0.00414999989420176 0.0460499966666102 0.00564999974519014 16 -0.12186636030674 0.162926524877548 0.19059319794178 0.278787076473236
0.006949999935925 0.0460499966666102 0.00564999974519014 16 -0.13655586540699 0.0822307392954826 0.209126070141792 0.262950778007507
0.00974999997764826 0.0460499966666102 0.00564999974519014 16 -0.147919699549675 0.00520701659843326 0.22826087474823 0.272048473358154
0.0125500000193715 0.0460499966666102 0.00564999974519014 16 -0.147147789597511 -0.0688385218381882 0.233196765184402 0.284204065799713
0.0153500000610948 0.0460499966666102 0.00564999974519014 16 -0.134123459458351 -0.141260772943497 0.225667521357536 0.298109948635101
0.018150000102818 0.0460499966666102 0.00564999974519014 16 -0.100253291428089 -0.212748631834984 0.187886193394661 0.301021456718445
0.0209500001445413 0.0460499966666102 0.00564999974519014 16 -0.0504213944077492 -0.275119751691818 0.123575530946255 0.305784404277802
0.0237500001862645 0.0460499966666102 0.00564999974519014 16 0.0164903718978167 -0.312279790639877 0.028660099953413 0.314025491476059
0.0265500002279878 0.0460499966666102 0.00564999974519014 16 0.0900570452213287 -0.310458183288574 -0.08024912327528 0.333068281412125
0.029350000269711 0.0460499966666102 0.00564999974519014 16 0.160610243678093 -0.270180910825729 -0.182308569550514 0.363359034061432
0.0321500003114343 0.0460499966666102 0.00564999974519014 16 0.212424293160439 -0.216359123587608 -0.255875110626221 0.396746069192886
0.0349500003531575 0.0460499966666102 0.00564999974519014 16 0.234139487147331 -0.186324030160904 -0.284763783216476 0.413071870803833
-0.0350500006899238 0.043249996624887 0.00564999974519014 16 -0.131213843822479 -0.203002661466599 0.00742542510852218 0.241831123828888
-0.0322500006482005 0.043249996624887 0.00564999974519014 16 -0.115794494748116 -0.214648947119713 -0.00918149296194315 0.244063183665276
-0.0294500006064773 0.043249996624887 0.00564999974519014 16 -0.0772717669606209 -0.231716632843018 -0.0496405027806759 0.249254286289215
-0.026650000564754 0.043249996624887 0.00564999974519014 16 -0.0223135091364384 -0.234390556812286 -0.094376802444458 0.253660827875137
-0.0238500005230308 0.043249996624887 0.00564999974519014 16 0.0414992943406105 -0.20739483833313 -0.140365183353424 0.253844827413559
-0.0210500004813075 0.043249996624887 0.00564999974519014 16 0.100830025970936 -0.149964436888695 -0.174255475401878 0.251039832830429
-0.0182500004395843 0.043249996624887 0.00564999974519014 16 0.143859639763832 -0.0679218992590904 -0.196364864706993 0.252721458673477
-0.015450000397861 0.043249996624887 0.00564999974519014 16 0.159674108028412 0.0258089490234852 -0.193370774388313 0.252099543809891
-0.0126500003561378 0.043249996624887 0.00564999974519014 16 0.146490886807442 0.118137963116169 -0.16170160472393 0.248120069503784
-0.0098500003144145 0.043249996624887 0.00564999974519014 16 0.106934048235416 0.192716956138611 -0.0993141010403633 0.241739541292191
-0.00705000027269125 0.043249996624887 0.00564999974519014 16 0.0517971813678741 0.239571511745453 -0.0203592758625746 0.245951130986214
-0.004250000230968 0.043249996624887 0.00564999974519014 16 -0.00644922722131014 0.252671897411346 0.0586345344781876 0.259466171264648
-0.00145000018924474 0.043249996624887 0.00564999974519014 16 -0.0551179423928261 0.235556095838547 0.121846087276936 0.270871073007584
0.0013499998524785 0.043249996624887 0.00564999974519014 16 -0.0884299576282501 0.192984238266945 0.164932504296303 0.268822431564331
0.00414999989420176 0.043249996624887 0.00564999974519014 16 -0.110788442194462 0.13419996201992 0.195314258337021 0.261593878269196
0.006949999935925 0.043249996624887 0.00564999974519014 16 -0.125327378511429 0.0675915032625198 0.215594276785851 0.258372724056244
0.00974999997764826 0.043249996624887 0.00564999974519014 16 -0.136820793151855 0.00142047135159373 0.233194783329964 0.270373344421387
0.0125500000193715 0.043249996624887 0.00564999974519014 16 -0.136159241199493 -0.060631837695837 0.234148412942886 0.27756267786026
0.0153500000610948 0.043249996624887 0.00564999974519014 16 -0.122658215463161 -0.118459440767765 0.220347985625267 0.278623253107071
0.018150000102818 0.043249996624887 0.00564999974519014 16 -0.0883198603987694 -0.171512961387634 0.177388265728951 0.26207572221756
0.0209500001445413 0.043249996624887 0.00564999974519014 16 -0.0389264598488808 -0.214598029851913 0.110531561076641 0.244509324431419
0.0237500001862645 0.043249996624887 0.00564999974519014 16 0.0250484328716993 -0.238451138138771 0.0175812114030123 0.240406885743141
0.0265500002279878 0.043249996624887 0.00564999974519014 16 0.0927496999502182 -0.234333127737045 -0.0855884253978729 0.266157656908035
0.029350000269711 0.043249996624887 0.00564999974519014 16 0.155609175562859 -0.204733967781067 -0.181824043393135 0.314944744110107
0.0321500003114343 0.043249996624887 0.00564999974519014 16 0.200930818915367 -0.166498586535454 -0.251193225383759 0.362205773591995
0.0349500003531575 0.043249996624887 0.00564999974519014 16 0.220293894410133 -0.145998120307922 -0.280152022838593 0.385136336088181
-0.0350500006899238 0.0404499965831637 0.00564999974519014 16 -0.0946336686611176 -0.167677342891693 -0.0185793861746788 0.193433225154877
-0.0322500006482005 0.0404499965831637 0.00564999974519014 16 -0.0839936062693596 -0.172853425145149 -0.0317551530897617 0.194786101579666
-0.0294500006064773 0.0404499965831637 0.00564999974519014 16 -0.0581622272729874 -0.177542135119438 -0.0607574693858624 0.196457430720329
-0.026650000564754 0.0404499965831637 0.00564999974519014 16 -0.0213907770812511 -0.169449284672737 -0.0922162011265755 0.194099083542824
-0.0238500005230308 0.0404499965831637 0.00564999974519014 16 0.021547757089138 -0.140345320105553 -0.121967241168022 0.187182053923607
-0.0210500004813075 0.0404499965831637 0.00564999974519014 16 0.0626351237297058 -0.0921460837125778 -0.143735095858574 0.181862130761147
-0.0182500004395843 0.0404499965831637 0.00564999974519014 16 0.0939350500702858 -0.0294238328933716 -0.157715663313866 0.185913383960724
-0.015450000397861 0.0404499965831637 0.00564999974519014 16 0.106711633503437 0.0388582684099674 -0.15363909304142 0.191055774688721
-0.0126500003561378 0.0404499965831637 0.00564999974519014 16 0.0984408035874367 0.10417839884758 -0.127036362886429 0.191525369882584
-0.0098500003144145 0.0404499965831637 0.00564999974519014 16 0.0692240446805954 0.155859902501106 -0.0728006362915039 0.1854297965765
-0.00705000027269125 0.0404499965831637 0.00564999974519014 16 0.0283406600356102 0.18781740963459 -0.00414786068722606 0.189988881349564
-0.004250000230968 0.0404499965831637 0.00564999974519014 16 -0.0147650428116322 0.1972696185112 0.0657242611050606 0.208453804254532
-0.00145000018924474 0.0404499965831637 0.00564999974519014 16 -0.0486002899706364 0.185601770877838 0.118715107440948 0.225617557764053
0.0013499998524785 0.0404499965831637 0.00564999974519014 16 -0.0708358809351921 0.155315160751343 0.153372347354889 0.229485511779785
0.00414999989420176 0.0404499965831637 0.00564999974519014 16 -0.0853477939963341 0.110587522387505 0.174570053815842 0.223581194877625
0.006949999935925 0.0404499965831637 0.00564999974519014 16 -0.0959686785936356 0.0579294636845589 0.187727406620979 0.218648999929428
0.00974999997764826 0.0404499965831637 0.00564999974519014 16 -0.105031788349152 0.00385489338077605 0.19760262966156 0.223815396428108
0.0125500000193715 0.0404499965831637 0.00564999974519014 16 -0.104456096887589 -0.0468523278832436 0.194348558783531 0.225560590624809
0.0153500000610948 0.0404499965831637 0.00564999974519014 16 -0.092120498418808 -0.0930234119296074 0.178595095872879 0.22144016623497
0.018150000102818 0.0404499965831637 0.00564999974519014 16 -0.0620862133800983 -0.133951023221016 0.139828205108643 0.203345760703087
0.0209500001445413 0.0404499965831637 0.00564999974519014 16 -0.020051795989275 -0.165485963225365 0.0831192657351494 0.18626993894577
0.0237500001862645 0.0404499965831637 0.00564999974519014 16 0.0309833995997906 -0.182450145483017 0.00830931216478348 0.185248672962189
0.0265500002279878 0.0404499965831637 0.00564999974519014 16 0.0822629854083061 -0.178371742367744 -0.0716477483510971 0.209086298942566
0.029350000269711 0.0404499965831637 0.00564999974519014 16 0.127696648240089 -0.156864956021309 -0.145197600126266 0.248988747596741
0.0321500003114343 0.0404499965831637 0.00564999974519014 16 0.160174831748009 -0.129368394613266 -0.197289317846298 0.285158276557922
0.0349500003531575 0.0404499965831637 0.00564999974519014 16 0.174023896455765 -0.114721588790417 -0.219446301460266 0.302658289670944
-0.0350500006899238 0.0376499965414405 0.00564999974519014 16 -0.0546594485640526 -0.141176596283913 -0.041063841432333 0.156858935952187
-0.0322500006482005 0.0376499965414405 0.00564999974519014 16 -0.0479290559887886 -0.14258149266243 -0.050957553088665 0.158818602561951
-0.0294500006064773 0.0376499965414405 0.00564999974519014 16 -0.0327418744564056 -0.140519365668297 -0.0699433758854866 0.160342752933502
-0.026650000564754 0.0376499965414405 0.00564999974519014 16 -0.0115240514278412 -0.127077370882034 -0.0884625092148781 0.155264541506767
-0.0238500005230308 0.0376499965414405 0.00564999974519014 16 0.0125133544206619 -0.09819595515728 -0.102887190878391 0.142775356769562
-0.0210500004813075 0.0376499965414405 0.00564999974519014 16 0.0354429595172405 -0.0568907372653484 -0.112036183476448 0.130555987358093
-0.0182500004395843 0.0376499965414405 0.00564999974519014 16 0.0532547384500504 -0.00618179421871901 -0.117144882678986 0.128830149769783
-0.015450000397861 0.0376499965414405 0.00564999974519014 16 0.0597460456192493 0.0475367084145546 -0.110136561095715 0.134012654423714
-0.0126500003561378 0.0376499965414405 0.00564999974519014 16 0.0529961474239826 0.0975353941321373 -0.086362712085247 0.140642330050468
-0.0098500003144145 0.0376499965414405 0.00564999974519014 16 0.0307881664484739 0.135809764266014 -0.0389446467161179 0.144599065184593
-0.00705000027269125 0.0376499965414405 0.00564999974519014 16 0.0019602773245424 0.157576814293861 0.0183193199336529 0.15865021944046