TITLE="DynamicStudio Exported Data"
VARIABLES= "X (m)[m]" "Y (m)[m]" "Z (m)[m]" "Status[-]" "U[-]" "V[-]" "W[-]" "Length[-]"
ZONE T="DynamicStudio Data" F=POINT
-0.0350500006899238 0.0600499968752265 0.00564999974519014 16 -0.397736251354218 -0.0164148882031441 0.472539603710175 0.617865085601807
-0.0322500006482005 0.0600499968752265 0.00564999974519014 16 -0.376189857721329 0.041270550340414 0.448593109846115 0.586905300617218
-0.0294500006064773 0.0600499968752265 0.00564999974519014 16 -0.317238628864288 0.159430891275406 0.382669895887375 0.522010326385498
-0.026650000564754 0.0600499968752265 0.00564999974519014 16 -0.22419136762619 0.275187999010086 0.276228964328766 0.449769526720047
-0.0238500005230308 0.0600499968752265 0.00564999974519014 16 -0.111139081418514 0.344564199447632 0.150528639554977 0.392090857028961
-0.0210500004813075 0.0600499968752265 0.00564999974519014 16 -0.000502889801282436 0.346388310194016 0.0302840322256088 0.347709983587265
-0.0182500004395843 0.0600499968752265 0.00564999974519014 16 0.0903774946928024 0.29852631688118 -0.0627982914447784 0.318166106939316
-0.015450000397861 0.0600499968752265 0.00564999974519014 16 0.146923899650574 0.222846895456314 -0.119626209139824 0.292502641677856
-0.0126500003561378 0.0600499968752265 0.00564999974519014 16 0.174137607216835 0.146224051713943 -0.146981075406075 0.270756006240845
-0.0098500003144145 0.0600499968752265 0.00564999974519014 16 0.180286571383476 0.0777419656515121 -0.157376438379288 0.251623541116714
-0.00705000027269125 0.0600499968752265 0.00564999974519014 16 0.179989621043205 0.0165838189423084 -0.165660709142685 0.245183110237122
-0.004250000230968 0.0600499968752265 0.00564999974519014 16 0.178775697946548 -0.0466065257787704 -0.178918793797493 0.257186412811279
-0.00145000018924474 0.0600499968752265 0.00564999974519014 16 0.172319903969765 -0.122730813920498 -0.188041225075722 0.28304859995842
0.0013499998524785 0.0600499968752265 0.00564999974519014 16 0.147312521934509 -0.210450291633606 -0.174489229917526 0.310542732477188
0.00414999989420176 0.0600499968752265 0.00564999974519014 16 0.0881929770112038 -0.295385420322418 -0.113763749599457 0.32859206199646
0.006949999935925 0.0600499968752265 0.00564999974519014 16 -0.00700201047584414 -0.351981282234192 -0.00477451272308826 0.352083295583725
0.00974999997764826 0.0600499968752265 0.00564999974519014 16 -0.130023255944252 -0.351926267147064 0.143517524003983 0.401690691709518
0.0125500000193715 0.0600499968752265 0.00564999974519014 16 -0.248989224433899 -0.284498006105423 0.286873996257782 0.47458553314209
0.0153500000610948 0.0600499968752265 0.00564999974519014 16 -0.338585883378983 -0.153877586126328 0.39791664481163 0.544661700725555
0.018150000102818 0.0600499968752265 0.00564999974519014 16 -0.368335068225861 0.0145297357812524 0.43658784031868 0.571393728256226
0.0209500001445413 0.0600499968752265 0.00564999974519014 16 -0.334895730018616 0.18290638923645 0.402342140674591 0.554516971111298
0.0237500001862645 0.0600499968752265 0.00564999974519014 16 -0.244619309902191 0.315474838018417 0.299175709486008 0.498867779970169
0.0265500002279878 0.0600499968752265 0.00564999974519014 16 -0.124852009117603 0.380771577358246 0.162024453282356 0.432234823703766
0.029350000269711 0.0600499968752265 0.00564999974519014 16 -0.0071572121232748 0.382889837026596 0.0258953869342804 0.383831232786179
0.0321500003114343 0.0600499968752265 0.00564999974519014 16 0.0800642073154449 0.348895788192749 -0.0732095986604691 0.365374058485031
0.0349500003531575 0.0600499968752265 0.00564999974519014 16 0.115869723260403 0.327088475227356 -0.115597262978554 0.365753173828125
-0.0350500006899238 0.0572499968335032 0.00564999974519014 16 -0.329212486743927 -0.0148348202928901 0.400763958692551 0.51885712146759
-0.0322500006482005 0.0572499968335032 0.00564999974519014 16 -0.310437768697739 0.0472630299627781 0.379813104867935 0.49281170964241
-0.0294500006064773 0.0572499968335032 0.00564999974519014 16 -0.26138910651207 0.174111247062683 0.324936509132385 0.451910108327866
-0.026650000564754 0.0572499968335032 0.00564999974519014 16 -0.184843719005585 0.299103528261185 0.236596748232841 0.423801988363266
-0.0238500005230308 0.0572499968335032 0.00564999974519014 16 -0.0917578190565109 0.373957723379135 0.130895853042603 0.406691044569016
-0.0210500004813075 0.0572499968335032 0.00564999974519014 16 -0.000669727160129696 0.375899821519852 0.0289564840495586 0.377014070749283
-0.0182500004395843 0.0572499968335032 0.00564999974519014 16 0.0746410563588142 0.322486758232117 -0.0503898374736309 0.33482551574707
-0.015450000397861 0.0572499968335032 0.00564999974519014 16 0.121296741068363 0.238925382494926 -0.0980711057782173 0.285335183143616
-0.0126500003561378 0.0572499968335032 0.00564999974519014 16 0.142974779009819 0.154586866497993 -0.118790224194527 0.241764351725578
-0.0098500003144145 0.0572499968335032 0.00564999974519014 16 0.146364763379097 0.0814732387661934 -0.124599494040012 0.208771556615829
-0.00705000027269125 0.0572499968335032 0.00564999974519014 16 0.145205423235893 0.0180619340389967 -0.129922032356262 0.195679798722267
-0.004250000230968 0.0572499968335032 0.00564999974519014 16 0.144655793905258 -0.0469553619623184 -0.141842633485794 0.207964986562729
-0.00145000018924474 0.0572499968335032 0.00564999974519014 16 0.141613587737083 -0.126520290970802 -0.152197197079659 0.243363484740257
0.0013499998524785 0.0572499968335032 0.00564999974519014 16 0.12355825304985 -0.220444813370705 -0.143869936466217 0.29079395532608
0.00414999989420176 0.0572499968335032 0.00564999974519014 16 0.076669879257679 -0.313241511583328 -0.0949429050087929 0.336173564195633
0.006949999935925 0.0572499968335032 0.00564999974519014 16 -0.00202696630731225 -0.377013325691223 -0.003588174469769 0.377035856246948
0.00974999997764826 0.0572499968335032 0.00564999974519014 16 -0.10531760007143 -0.380507200956345 0.122691325843334 0.41343766450882
0.0125500000193715 0.0572499968335032 0.00564999974519014 16 -0.206956624984741 -0.310248911380768 0.246051073074341 0.446795880794525
0.0153500000610948 0.0572499968335032 0.00564999974519014 16 -0.284458577632904 -0.169793754816055 0.342960745096207 0.476831912994385
0.018150000102818 0.0572499968335032 0.00564999974519014 16 -0.312292635440826 0.0131232803687453 0.378305733203888 0.490728169679642
0.0209500001445413 0.0572499968335032 0.00564999974519014 16 -0.286242425441742 0.196890130639076 0.351739585399628 0.494389712810516
0.0237500001862645 0.0572499968335032 0.00564999974519014 16 -0.211871862411499 0.340360909700394 0.264845281839371 0.480497926473618
0.0265500002279878 0.0572499968335032 0.00564999974519014 16 -0.112142220139503 0.41017073392868 0.148468926548958 0.450398623943329
0.029350000269711 0.0572499968335032 0.00564999974519014 16 -0.0143723282963037 0.410924196243286 0.0320163071155548 0.412420064210892
0.0321500003114343 0.0572499968335032 0.00564999974519014 16 0.0580286271870136 0.372756451368332 -0.0528095774352551 0.380924582481384
0.0349500003531575 0.0572499968335032 0.00564999974519014 16 0.087933361530304 0.348280340433121 -0.0887540578842163 0.370011806488037
-0.0350500006899238 0.05444999679178 0.00564999974519014 16 -0.157802417874336 -0.00997505988925695 0.210525244474411 0.263290673494339
-0.0322500006482005 0.05444999679178 0.00564999974519014 16 -0.148619055747986 0.0592853054404259 0.201879560947418 0.257599949836731
-0.0294500006064773 0.05444999679178 0.00564999974519014 16 -0.123830638825893 0.200154289603233 0.176440939307213 0.29415500164032
-0.026650000564754 0.05444999679178 0.00564999974519014 16 -0.0865874290466309 0.339312851428986 0.132245644927025 0.374325394630432
-0.0238500005230308 0.05444999679178 0.00564999974519014 16 -0.0412619560956955 0.42188161611557 0.0777364820241928 0.430963575839996
-0.0210500004813075 0.05444999679178 0.00564999974519014 16 0.00260725431144238 0.423237204551697 0.0229168012738228 0.42386519908905
-0.0182500004395843 0.05444999679178 0.00564999974519014 16 0.0398956462740898 0.360143750905991 -0.0204528607428074 0.362923562526703
-0.015450000397861 0.05444999679178 0.00564999974519014 16 0.0618488043546677 0.263763338327408 -0.0456050895154476 0.274729311466217
-0.0126500003561378 0.05444999679178 0.00564999974519014 16 0.0701421871781349 0.166937872767448 -0.051568292081356 0.18827497959137
-0.0098500003144145 0.05444999679178 0.00564999974519014 16 0.0678239092230797 0.0861372128129005 -0.0482478812336922 0.119781292974949
-0.00705000027269125 0.05444999679178 0.00564999974519014 16 0.0648441091179848 0.0182977616786957 -0.0460085906088352 0.0815865024924278
-0.004250000230968 0.05444999679178 0.00564999974519014 16 0.0657451674342155 -0.0500916466116905 -0.054057277739048 0.0987612754106522
-0.00145000018924474 0.05444999679178 0.00564999974519014 16 0.0696980357170105 -0.134644940495491 -0.0664515495300293 0.165538161993027
0.0013499998524785 0.05444999679178 0.00564999974519014 16 0.0669706463813782 -0.23633337020874 -0.0713755339384079 0.255798727273941
0.00414999989420176 0.05444999679178 0.00564999974519014 16 0.0474425666034222 -0.339408725500107 -0.0506541952490807 0.346431702375412
0.006949999935925 0.05444999679178 0.00564999974519014 16 0.00681732781231403 -0.413377523422241 -0.00163504097145051 0.413436949253082
0.00974999997764826 0.05444999679178 0.00564999974519014 16 -0.0508609935641289 -0.422746539115906 0.0735270977020264 0.432096868753433
0.0125500000193715 0.05444999679178 0.00564999974519014 16 -0.109985008835793 -0.348681688308716 0.147663041949272 0.394309520721436
0.0153500000610948 0.05444999679178 0.00564999974519014 16 -0.157077684998512 -0.193555310368538 0.208948850631714 0.325264006853104
0.018150000102818 0.05444999679178 0.00564999974519014 16 -0.17656546831131 0.0113450447097421 0.232749924063683 0.292363822460175
0.0209500001445413 0.05444999679178 0.00564999974519014 16 -0.166267052292824 0.218099504709244 0.223120972514153 0.353546470403671
0.0237500001862645 0.05444999679178 0.00564999974519014 16 -0.129222378134727 0.378466963768005 0.176417723298073 0.437102824449539
0.0265500002279878 0.05444999679178 0.00564999974519014 16 -0.0783551037311554 0.455341190099716 0.111886791884899 0.475388020277023
0.029350000269711 0.05444999679178 0.00564999974519014 16 -0.0285247527062893 0.453574687242508 0.0439956560730934 0.456595301628113
0.0321500003114343 0.05444999679178 0.00564999974519014 16 0.00880189146846533 0.407792031764984 -0.00682154670357704 0.407944053411484
0.0349500003531575 0.05444999679178 0.00564999974519014 16 0.0241151060909033 0.378136366605759 -0.0289202015846968 0.380006611347198
-0.0350500006899238 0.0516499967500567 0.00564999974519014 16 0.0421042256057262 0.00296908942982554 -0.0102460421621799 0.0434345789253712
-0.0322500006482005 0.0516499967500567 0.00564999974519014 16 0.0428646989166737 0.0716693103313446 -0.00874660070985556 0.0839665159583092
-0.0294500006064773 0.0516499967500567 0.00564999974519014 16 0.0412043035030365 0.211921542882919 -0.000495775195304304 0.215890660881996
-0.026650000564754 0.0516499967500567 0.00564999974519014 16 0.0340653322637081 0.352322906255722 0.00754550797864795 0.35404634475708
-0.0238500005230308 0.0516499967500567 0.00564999974519014 16 0.0234553143382072 0.436089098453522 0.0157899130135775 0.437004774808884
-0.0210500004813075 0.0516499967500567 0.00564999974519014 16 0.01054563280195 0.439574211835861 0.0190173108130693 0.440111756324768
-0.0182500004395843 0.0516499967500567 0.00564999974519014 16 0.000335978489601985 0.3746357858181 0.0215243045240641 0.375253736972809
-0.015450000397861 0.0516499967500567 0.00564999974519014 16 -0.00905747432261705 0.27444463968277 0.0250454675406218 0.275733888149261
-0.0126500003561378 0.0516499967500567 0.00564999974519014 16 -0.0185286924242973 0.170392155647278 0.0375056862831116 0.175452202558517
-0.0098500003144145 0.0516499967500567 0.00564999974519014 16 -0.0278567019850016 0.0835057720541954 0.0507509633898735 0.101611368358135
-0.00705000027269125 0.0516499967500567 0.00564999974519014 16 -0.0331983454525471 0.0108742555603385 0.0613198578357697 0.0705726891756058
-0.004250000230968 0.0516499967500567 0.00564999974519014 16 -0.0302124097943306 -0.0602838657796383 0.0564025305211544 0.0879100635647774
-0.00145000018924474 0.0516499967500567 0.00564999974519014 16 -0.0184997208416462 -0.146037772297859 0.0405693016946316 0.152692958712578
0.0013499998524785 0.0516499967500567 0.00564999974519014 16 -0.00299716275185347 -0.247266322374344 0.0172282811254263 0.247883901000023
0.00414999989420176 0.0516499967500567 0.00564999974519014 16 0.0104475440457463 -0.349325448274612 0.000715860223863274 0.349482387304306
0.006949999935925 0.0516499967500567 0.00564999974519014 16 0.0170046258717775 -0.421622425317764 -0.00567107135429978 0.422003298997879
0.00974999997764826 0.0516499967500567 0.00564999974519014 16 0.0161626916378736 -0.430942595005035 0.00279783410951495 0.431254655122757
0.0125500000193715 0.0516499967500567 0.00564999974519014 16 0.011160921305418 -0.355972468852997 0.0131748653948307 0.35639101266861
0.0153500000610948 0.0516499967500567 0.00564999974519014 16 0.00347809097729623 -0.199219465255737 0.0272076651453972 0.20109885931015
0.018150000102818 0.0516499967500567 0.00564999974519014 16 -0.00315660331398249 0.00930037535727024 0.0345713160932064 0.0359393544495106
0.0209500001445413 0.0516499967500567 0.00564999974519014 16 -0.0105743734166026 0.220214605331421 0.0441571958363056 0.224846944212914
0.0237500001862645 0.0516499967500567 0.00564999974519014 16 -0.0182903949171305 0.383558481931686 0.048328872770071 0.387023687362671
0.0265500002279878 0.0516499967500567 0.00564999974519014 16 -0.0286941714584827 0.463277280330658 0.0521727688610554 0.467087984085083
0.029350000269711 0.0516499967500567 0.00564999974519014 16 -0.0402618646621704 0.464137524366379 0.0522589422762394 0.468802362680435
0.0321500003114343 0.0516499967500567 0.00564999974519014 16 -0.0495985224843025 0.421302825212479 0.052119966596365 0.427402138710022
0.0349500003531575 0.0516499967500567 0.00564999974519014 16 -0.0538609772920609 0.393243014812469 0.0520057752728462 0.400306969881058
-0.0350500006899238 0.0488499967083335 0.00564999974519014 16 0.204057037830353 0.0154415927827358 -0.202540516853333 0.287924259901047
-0.0322500006482005 0.0488499967083335 0.00564999974519014 16 0.19784614443779 0.0770754218101501 -0.190639212727547 0.285354197025299
-0.0294500006064773 0.0488499967083335 0.00564999974519014 16 0.176726147532463 0.2012088149786 -0.154813811182976 0.309329003095627
-0.026650000564754 0.0488499967083335 0.00564999974519014 16 0.136963725090027 0.326032161712646 -0.105347774922848 0.368990749120712
-0.0238500005230308 0.0488499967083335 0.00564999974519014 16 0.083989217877388 0.400385916233063 -0.0458342954516411 0.411659866571426
-0.0210500004813075 0.0488499967083335 0.00564999974519014 16 0.0270040072500706 0.405380398035049 0.00706569524481893 0.406340271234512
-0.0182500004395843 0.0488499967083335 0.00564999974519014 16 -0.0228390041738749 0.34744930267334 0.0516425557434559 0.352007955312729
-0.015450000397861 0.0488499967083335 0.00564999974519014 16 -0.0602137707173824 0.256670206785202 0.0829966589808464 0.276394158601761
-0.0126500003561378 0.0488499967083335 0.00564999974519014 16 -0.0872253328561783 0.157758966088295 0.112969040870667 0.212739646434784
-0.0098500003144145 0.0488499967083335 0.00564999974519014 16 -0.103881977498531 0.0723940655589104 0.135280847549438 0.185292407870293
-0.00705000027269125 0.0488499967083335 0.00564999974519014 16 -0.112104177474976 -0.00161619321443141 0.152942448854446 0.189634785056114
-0.004250000230968 0.0488499967083335 0.00564999974519014 16 -0.107356570661068 -0.0720789656043053 0.149684622883797 0.197803691029549
-0.00145000018924474 0.0488499967083335 0.00564999974519014 16 -0.0893454700708389 -0.151698470115662 0.128294050693512 0.217840313911438
0.0013499998524785 0.0488499967083335 0.00564999974519014 16 -0.0584807321429253 -0.239576682448387 0.0851573124527931 0.260899871587753
0.00414999989420176 0.0488499967083335 0.00564999974519014 16 -0.0188401993364096 -0.325191676616669 0.0346754118800163 0.327577412128448
0.006949999935925 0.0488499967083335 0.00564999974519014 16 0.0253604166209698 -0.382942467927933 -0.0185992289334536 0.384231716394424
0.00974999997764826 0.0488499967083335 0.00564999974519014 16 0.0696984604001045 -0.387538492679596 -0.0653872117400169 0.399148404598236
0.0125500000193715 0.0488499967083335 0.00564999974519014 16 0.109737649559975 -0.31878075003624 -0.109041430056095 0.354335367679596
0.0153500000610948 0.0488499967083335 0.00564999974519014 16 0.136806532740593 -0.17975215613842 -0.137630984187126 0.264516830444336
0.018150000102818 0.0488499967083335 0.00564999974519014 16 0.144718021154404 0.00512353051453829 -0.147603869438171 0.206776350736618
0.0209500001445413 0.0488499967083335 0.00564999974519014 16 0.125564277172089 0.192880973219872 -0.124578729271889 0.261704623699188
0.0237500001862645 0.0488499967083335 0.00564999974519014 16 0.0820396766066551 0.340087980031967 -0.0775946155190468 0.358345180749893
0.0265500002279878 0.0488499967083335 0.00564999974519014 16 0.0200792159885168 0.416014522314072 -0.0133152855560184 0.41671159863472
0.029350000269711 0.0488499967083335 0.00564999974519014 16 -0.0436272732913494 0.423048168420792 0.0489218756556511 0.428096294403076
0.0321500003114343 0.0488499967083335 0.00564999974519014 16 -0.0928480997681618 0.391240209341049 0.0955459773540497 0.413302183151245
0.0349500003531575 0.0488499967083335 0.00564999974519014 16 -0.11369564384222 0.368799418210983 0.115311779081821 0.402785956859589
-0.0350500006899238 0.0460499966666102 0.00564999974519014 16 0.258613675832748 0.0311701092869043 -0.276555180549622 0.379914969205856
-0.0322500006482005 0.0460499966666102 0.00564999974519014 16 0.251241952180862 0.0778737515211105 -0.261965245008469 0.371231228113174
-0.0294500006064773 0.0460499966666102 0.00564999974519014 16 0.226501747965813 0.172054618597031 -0.217972308397293 0.358354240655899
-0.026650000564754 0.0460499966666102 0.00564999974519014 16 0.180084615945816 0.267701715230942 -0.155584812164307 0.358191728591919
-0.0238500005230308 0.0460499966666102 0.00564999974519014 16 0.115867957472801 0.325522541999817 -0.0780691280961037 0.354238748550415
-0.0210500004813075 0.0460499966666102 0.00564999974519014 16 0.0446712076663971 0.331844866275787 -0.00484591629356146 0.334873139858246
-0.0182500004395843 0.0460499966666102 0.00564999974519014 16 -0.0217591188848019 0.288420259952545 0.0607615299522877 0.295553177595139
-0.015450000397861 0.0460499966666102 0.00564999974519014 16 -0.073470450937748 0.216867238283157 0.108890242874622 0.253547608852386
-0.0126500003561378 0.0460499966666102 0.00564999974519014 16 -0.111459881067276 0.133019968867302 0.149993270635605 0.229380905628204
-0.0098500003144145 0.0460499966666102 0.00564999974519014 16 -0.133710637688637 0.0558220036327839 0.17768894135952 0.229277104139328
-0.00705000027269125 0.0460499966666102 0.00564999974519014 16 -0.144006803631783 -0.0147969983518124 0.196561425924301 0.244117394089699
-0.004250000230968 0.0460499966666102 0.00564999974519014 16 -0.137900829315186 -0.0803761407732964 0.190639406442642 0.248636975884438
-0.00145000018924474 0.0460499966666102 0.00564999974519014 16 -0.116106107831001 -0.148455291986465 0.161696583032608 0.248325169086456
0.0013499998524785 0.0460499966666102 0.00564999974519014 16 -0.0772924944758415 -0.216182813048363 0.104628920555115 0.252302080392838
0.00414999989420176 0.0460499966666102 0.00564999974519014 16 -0.0262977238744497 -0.276476114988327 0.0351787470281124 0.279943138360977
0.006949999935925 0.0460499966666102 0.00564999974519014 16 0.033757321536541 -0.312311977148056 -0.0417412333190441 0.316892206668854
0.00974999997764826 0.0460499966666102 0.00564999974519014 16 0.0962746664881706 -0.308942943811417 -0.114395588636398 0.343221366405487
0.0125500000193715 0.0460499966666102 0.00564999974519014 16 0.155989617109299 -0.252787530422211 -0.183672562241554 0.34924191236496
0.0153500000610948 0.0460499966666102 0.00564999974519014 16 0.199375987052917 -0.146174773573875 -0.233275592327118 0.33990490436554
0.018150000102818 0.0460499966666102 0.00564999974519014 16 0.21617428958416 -0.00489368801936507 -0.253692775964737 0.333339601755142
0.0209500001445413 0.0460499966666102 0.00564999974519014 16 0.194039508700371 0.140346094965935 -0.226886287331581 0.329887479543686
0.0237500001862645 0.0460499966666102 0.00564999974519014 16 0.13580696284771 0.257892042398453 -0.160575717687607 0.332770794630051
0.0265500002279878 0.0460499966666102 0.00564999974519014 16 0.0505934022367001 0.325445711612701 -0.0652821809053421 0.335762351751328
0.029350000269711 0.0460499966666102 0.00564999974519014 16 -0.0385667271912098 0.343033581972122 0.032571155577898 0.34672799706459
0.0321500003114343 0.0460499966666102 0.00564999974519014 16 -0.108337841928005 0.330699592828751 0.109063945710659 0.364683777093887
0.0349500003531575 0.0460499966666102 0.00564999974519014 16 -0.138636529445648 0.319429725408554 0.142989173531532 0.37643238902092
-0.0350500006899238 0.043249996624887 0.00564999974519014 16 0.223489210009575 0.0432132184505463 -0.259632110595703 0.345287770032883
-0.0322500006482005 0.043249996624887 0.00564999974519014 16 0.218158423900604 0.0763674527406693 -0.245377421379089 0.337098151445389
-0.0294500006064773 0.043249996624887 0.00564999974519014 16 0.200470134615898 0.142228245735168 -0.206615790724754 0.321103155612946
-0.026650000564754 0.043249996624887 0.00564999974519014 16 0.165621310472488 0.208667397499084 -0.15226773917675 0.30685168504715
-0.0238500005230308 0.043249996624887 0.00564999974519014 16 0.114409454166889 0.248363420367241 -0.0835338458418846 0.285922735929489
-0.0210500004813075 0.043249996624887 0.00564999974519014 16 0.0548299252986908 0.252400875091553 -0.0159378368407488 0.258778929710388
-0.0182500004395843 0.043249996624887 0.00564999974519014 16 -0.00501936534419656 0.220873087644577 0.0494088381528854 0.226387605071068
-0.015450000397861 0.043249996624887 0.00564999974519014 16 -0.0552828907966614 0.167586848139763 0.100712977349758 0.203186258673668
-0.0126500003561378 0.043249996624887 0.00564999974519014 16 -0.0945456773042679 0.101902678608894 0.14444862306118 0.200470566749573
-0.0098500003144145 0.043249996624887 0.00564999974519014 16 -0.118452183902264 0.0376060046255589 0.172817200422287 0.212863609194756
-0.00705000027269125 0.043249996624887 0.00564999974519014 16 -0.12897402048111 -0.023892555385828 0.188247367739677 0.229438930749893
-0.004250000230968 0.043249996624887 0.00564999974519014 16 -0.122595891356468 -0.080546073615551 0.177895337343216 0.230573579668999
-0.00145000018924474 0.043249996624887 0.00564999974519014 16 -0.100544489920139 -0.134266301989555 0.142927795648575 0.220374643802643
0.0013499998524785 0.043249996624887 0.00564999974519014 16 -0.0628741458058357 -0.182287395000458 0.0820965990424156 0.209575057029724
0.00414999989420176 0.043249996624887 0.00564999974519014 16 -0.0154336029663682 -0.219539627432823 0.0120638553053141 0.220411837100983
0.006949999935925 0.043249996624887 0.00564999974519014 16 0.0391467176377773 -0.238167747855186 -0.0626582875847816 0.249364003539085
0.00974999997764826 0.043249996624887 0.00564999974519014 16 0.0953030735254288 -0.230293765664101 -0.131523475050926 0.281809002161026
0.0125500000193715 0.043249996624887 0.00564999974519014 16 0.151199415326118 -0.18927475810051 -0.198958098888397 0.31348130106926
0.0153500000610948 0.043249996624887 0.00564999974519014 16 0.193861246109009 -0.115919783711433 -0.248725906014442 0.335982382297516
0.018150000102818 0.043249996624887 0.00564999974519014 16 0.212988197803497 -0.0187480952590704 -0.271571338176727 0.345639199018478
0.0209500001445413 0.043249996624887 0.00564999974519014 16 0.194319322705269 0.0839180648326874 -0.248205244541168 0.326202541589737
0.0237500001862645 0.043249996624887 0.00564999974519014 16 0.13931205868721 0.171982124447823 -0.183760389685631 0.287669211626053
0.0265500002279878 0.043249996624887 0.00564999974519014 16 0.0574225895106792 0.230211108922958 -0.0876921340823174 0.252951413393021
0.029350000269711 0.043249996624887 0.00564999974519014 16 -0.0296458881348372 0.255906581878662 0.0140160145238042 0.257999062538147
0.0321500003114343 0.043249996624887 0.00564999974519014 16 -0.0979621112346649 0.25951299071312 0.095407210290432 0.293336153030396
0.0349500003531575 0.043249996624887 0.00564999974519014 16 -0.128324493765831 0.257174104452133 0.132009476423264 0.316278666257858
-0.0350500006899238 0.0404499965831637 0.00564999974519014 16 0.145548313856125 0.057640615850687 -0.189501866698265 0.245800152420998
-0.0322500006482005 0.0404499965831637 0.00564999974519014 16 0.143308490514755 0.0795057192444801 -0.178488403558731 0.242315068840981
-0.0294500006064773 0.0404499965831637 0.00564999974519014 16 0.135560974478722 0.122815877199173 -0.150946214795113 0.237160861492157
-0.026650000564754 0.0404499965831637 0.00564999974519014 16 0.117645554244518 0.165959402918816 -0.11241053044796 0.232420146465302
-0.0238500005230308 0.0404499965831637 0.00564999974519014 16 0.0879821255803108 0.190501064062119 -0.0634013488888741 0.219205930829048
-0.0210500004813075 0.0404499965831637 0.00564999974519014 16 0.0501047298312187 0.190282940864563 -0.013407432474196 0.197225362062454
-0.0182500004395843 0.0404499965831637 0.00564999974519014 16 0.00818677246570587 0.165430039167404 0.0380547344684601 0.169947892427444
-0.015450000397861 0.0404499965831637 0.00564999974519014 16 -0.0305606927722692 0.124216496944427 0.0807909220457077 0.151297271251678
-0.0126500003561378 0.0404499965831637 0.00564999974519014 16 -0.0627146363258362 0.0728314369916916 0.117526650428772 0.151822462677956
-0.0098500003144145 0.0404499965831637 0.00564999974519014 16 -0.0828805267810822 0.0201611872762442 0.139745101332664 0.163720324635506
-0.00705000027269125 0.0404499965831637 0.00564999974519014 16 -0.0902766734361649 -0.0304419603198767 0.147063538432121 0.175226345658302
-0.004250000230968 0.0404499965831637 0.00564999974519014 16 -0.0829798877239227 -0.0768064931035042 0.131425157189369 0.173370912671089
-0.00145000018924474 0.0404499965831637 0.00564999974519014 16 -0.0626349970698357 -0.117126673460007 0.0947260856628418 0.163140520453453
0.0013499998524785 0.0404499965831637 0.00564999974519014 16 -0.0316985994577408 -0.150700554251671 0.0401816740632057 0.159154087305069
0.00414999989420176 0.0404499965831637 0.00564999974519014 16 0.00454604206606746 -0.17243991792202 -0.0182538125663996 0.173462942242622
0.006949999935925 0.0404499965831637 0.00564999974519014 16 0.0437155924737453 -0.1809451431036 -0.0772856771945953 0.201557114720345
0.00974999997764826 0.0404499965831637 0.00564999974519014 16 0.0832317322492599 -0.172135949134827 -0.129605054855347 0.230988696217537
0.0125500000193715 0.0404499965831637 0.00564999974519014 16 0.123831756412983 -0.144739478826523 -0.181498646736145 0.263107538223267
0.0153500000610948 0.0404499965831637 0.00564999974519014 16 0.156326770782471 -0.0979332700371742 -0.219428882002831 0.286667078733444
0.018150000102818 0.0404499965831637 0.00564999974519014 16 0.172073170542717 -0.0347972773015499 -0.236948683857918 0.294897794723511
0.0209500001445413 0.0404499965831637 0.00564999974519014 16 0.158586516976357 0.0355666279792786 -0.217798933386803 0.271755486726761
0.0237500001862645 0.0404499965831637 0.00564999974519014 16 0.115586660802364 0.101172603666782 -0.1649399548769 0.225391566753387
0.0265500002279878 0.0404499965831637 0.00564999974519014 16 0.0507484599947929 0.151398807764053 -0.0849153846502304 0.180852502584457
0.029350000269711 0.0404499965831637 0.00564999974519014 16 -0.0198399052023888 0.181622520089149 0.00157966185361147 0.182709768414497
0.0321500003114343 0.0404499965831637 0.00564999974519014 16 -0.0757440850138664 0.195498839020729 0.0725107118487358 0.221844017505646
0.0349500003531575 0.0404499965831637 0.00564999974519014 16 -0.101336382329464 0.199216827750206 0.104582220315933 0.246766775846481
-0.0350500006899238 0.0376499965414405 0.00564999974519014 16 0.0740904435515404 0.0691646635532379 -0.12299694865942 0.15937814116478
-0.0322500006482005 0.0376499965414405 0.00564999974519014 16 0.0735760182142258 0.0843291729688644 -0.114523686468601 0.160126551985741
-0.0294500006064773 0.0376499965414405 0.00564999974519014 16 0.0715445950627327 0.113749988377094 -0.095520943403244 0.164869457483292
-0.026650000564754 0.0376499965414405 0.00564999974519014 16 0.0642517507076263 0.141733199357986 -0.0687941387295723 0.170144706964493
-0.0238500005230308 0.0376499965414405 0.00564999974519014 16 0.0502290725708008 0.155649796128273 -0.0360782109200954 0.167485684156418
-0.0210500004813075 0.0376499965414405 0.00564999974519014 16 0.0302648171782494 0.150837540626526 -0.00201051798649132 0.153856962919235
-0.0182500004395843 0.0376499965414405 0.00564999974519014 16 0.00639476301148534 0.128284871578217 0.0332164391875267 0.132669642567635
-0.015450000397861 0.0376499965414405 0.00564999974519014 16 -0.0174481812864542 0.0926769152283669 0.0629861801862717 0.11340506374836
-0.0126500003561378 0.0376499965414405 0.00564999974519014 16 -0.0379148870706558 0.0498207919299603 0.0876521095633507 0.107715100049973
-0.0098500003144145 0.0376499965414405 0.00564999974519014 16 -0.0503879301249981 0.00532318698242307 0.100244969129562 0.112322457134724
-0.00705000027269125 0.0376499965414405 0.00564999974519014 16 -0.0530949272215366 -0.0356184914708138 0.0993184372782707 0.118118159472942
-0.004250000230968 0.0376499965414405 0.00564999974519014 16 -0.0449635274708271 -0.072258859872818 0.0808570832014084 0.1173922047019