TITLE="DynamicStudio Exported Data"
VARIABLES= "X (m)[m]" "Y (m)[m]" "Z (m)[m]" "Status[-]" "U[-]" "V[-]" "W[-]" "Length[-]"
ZONE T="DynamicStudio Data" F=POINT
-0.0350500006899238 0.0600499968752265 0.00564999974519014 16 0.218547075986862 -0.0393569357693195 -0.215594053268433 0.309503793716431
-0.0322500006482005 0.0600499968752265 0.00564999974519014 16 0.221302300691605 -0.0415696278214455 -0.220727488398552 0.315314710140228
-0.0294500006064773 0.0600499968752265 0.00564999974519014 16 0.215669646859169 -0.0557698868215084 -0.213287726044655 0.308407753705978
-0.026650000564754 0.0600499968752265 0.00564999974519014 16 0.208914637565613 -0.0987097546458244 -0.212099552154541 0.313648134469986
-0.0238500005230308 0.0600499968752265 0.00564999974519014 16 0.179535269737244 -0.172173947095871 -0.185206234455109 0.310125976800919
-0.0210500004813075 0.0600499968752265 0.00564999974519014 16 0.127812996506691 -0.26543602347374 -0.142003357410431 0.327043414115906
-0.0182500004395843 0.0600499968752265 0.00564999974519014 16 0.0408836416900158 -0.342197895050049 -0.0511464141309261 0.348406136035919
-0.015450000397861 0.0600499968752265 0.00564999974519014 16 -0.0655735358595848 -0.374431282281876 0.065868929028511 0.38579449057579
-0.0126500003561378 0.0600499968752265 0.00564999974519014 16 -0.176408320665359 -0.335550487041473 0.202151730656624 0.429626971483231
-0.0098500003144145 0.0600499968752265 0.00564999974519014 16 -0.265779107809067 -0.22775799036026 0.318960756063461 0.473548531532288
-0.00705000027269125 0.0600499968752265 0.00564999974519014 16 -0.309511631727219 -0.0653960928320885 0.387728333473206 0.500407159328461
-0.004250000230968 0.0600499968752265 0.00564999974519014 16 -0.294671386480331 0.111477687954903 0.384606003761292 0.497172296047211
-0.00145000018924474 0.0600499968752265 0.00564999974519014 16 -0.218370720744133 0.261865228414536 0.303672194480896 0.456591695547104
0.0013499998524785 0.0600499968752265 0.00564999974519014 16 -0.106438152492046 0.346289485692978 0.1737941801548 0.40180829167366
0.00414999989420176 0.0600499968752265 0.00564999974519014 16 0.0134829087182879 0.353584557771683 0.0312686860561371 0.355220437049866
0.006949999935925 0.0600499968752265 0.00564999974519014 16 0.104758597910404 0.294146418571472 -0.0764487385749817 0.321466773748398
0.00974999997764826 0.0600499968752265 0.00564999974519014 16 0.161043733358383 0.198115810751915 -0.137069702148438 0.28978106379509
0.0125500000193715 0.0600499968752265 0.00564999974519014 16 0.180359989404678 0.101488716900349 -0.15435117483139 0.258174300193787
0.0153500000610948 0.0600499968752265 0.00564999974519014 16 0.183885216712952 0.024986706674099 -0.154766410589218 0.241641789674759
0.018150000102818 0.0600499968752265 0.00564999974519014 16 0.184653088450432 -0.0234938245266676 -0.166269794106483 0.249588400125504
0.0209500001445413 0.0600499968752265 0.00564999974519014 16 0.19096502661705 -0.0664627403020859 -0.196600675582886 0.282022625207901
0.0237500001862645 0.0600499968752265 0.00564999974519014 16 0.196697816252708 -0.120870321989059 -0.23839208483696 0.331859081983566
0.0265500002279878 0.0600499968752265 0.00564999974519014 16 0.183287292718887 -0.202211663126945 -0.258152544498444 0.375668108463287
0.029350000269711 0.0600499968752265 0.00564999974519014 16 0.148451074957848 -0.29194363951683 -0.235790476202965 0.40356656908989
0.0321500003114343 0.0600499968752265 0.00564999974519014 16 0.102746777236462 -0.368613600730896 -0.190356776118279 0.427397459745407
0.0349500003531575 0.0600499968752265 0.00564999974519014 16 0.0795354768633842 -0.402820080518723 -0.159053534269333 0.440327078104019
-0.0350500006899238 0.0572499968335032 0.00564999974519014 16 0.176265895366669 -0.0418836288154125 -0.159838318824768 0.241603374481201
-0.0322500006482005 0.0572499968335032 0.00564999974519014 16 0.178052604198456 -0.043938472867012 -0.163875237107277 0.245943918824196
-0.0294500006064773 0.0572499968335032 0.00564999974519014 16 0.173631921410561 -0.0573718026280403 -0.158563449978828 0.242037057876587
-0.026650000564754 0.0572499968335032 0.00564999974519014 16 0.167486295104027 -0.101089604198933 -0.158963263034821 0.252071589231491
-0.0238500005230308 0.0572499968335032 0.00564999974519014 16 0.143894791603088 -0.178371891379356 -0.140916675329208 0.269034862518311
-0.0210500004813075 0.0572499968335032 0.00564999974519014 16 0.102589897811413 -0.27836075425148 -0.110737353563309 0.316657811403275
-0.0182500004395843 0.0572499968335032 0.00564999974519014 16 0.0346388854086399 -0.362043052911758 -0.0426510348916054 0.366188645362854
-0.015450000397861 0.0572499968335032 0.00564999974519014 16 -0.0507646799087524 -0.398502588272095 0.050332248210907 0.404863804578781
-0.0126500003561378 0.0572499968335032 0.00564999974519014 16 -0.141468241810799 -0.358623772859573 0.163962200284004 0.418936610221863
-0.0098500003144145 0.0572499968335032 0.00564999974519014 16 -0.219045177102089 -0.243738427758217 0.267065525054932 0.42274484038353
-0.00705000027269125 0.0572499968335032 0.00564999974519014 16 -0.260282337665558 -0.0691989064216614 0.333578079938889 0.428730338811874
-0.004250000230968 0.0572499968335032 0.00564999974519014 16 -0.252711892127991 0.122462831437588 0.339696764945984 0.440742939710617
-0.00145000018924474 0.0572499968335032 0.00564999974519014 16 -0.189993858337402 0.285793513059616 0.275684893131256 0.440201938152313
0.0013499998524785 0.0572499968335032 0.00564999974519014 16 -0.0952935144305229 0.377273499965668 0.164674326777458 0.422532588243484
0.00414999989420176 0.0572499968335032 0.00564999974519014 16 0.00770039996132255 0.383747488260269 0.0377549864351749 0.38567715883255
0.006949999935925 0.0572499968335032 0.00564999974519014 16 0.0860716924071312 0.315912961959839 -0.0611852705478668 0.333096027374268
0.00974999997764826 0.0572499968335032 0.00564999974519014 16 0.135147646069527 0.20888814330101 -0.120149113237858 0.276287794113159
0.0125500000193715 0.0572499968335032 0.00564999974519014 16 0.152653411030769 0.101973742246628 -0.138273850083351 0.229828983545303
0.0153500000610948 0.0572499968335032 0.00564999974519014 16 0.157099410891533 0.0222356449812651 -0.137955695390701 0.210253238677979
0.018150000102818 0.0572499968335032 0.00564999974519014 16 0.158176094293594 -0.0251129008829594 -0.143582209944725 0.21509575843811
0.0209500001445413 0.0572499968335032 0.00564999974519014 16 0.164101496338844 -0.0640336871147156 -0.166429340839386 0.242339298129082
0.0237500001862645 0.0572499968335032 0.00564999974519014 16 0.169864416122437 -0.119175300002098 -0.205090224742889 0.291751027107239
0.0265500002279878 0.0572499968335032 0.00564999974519014 16 0.160538673400879 -0.206333547830582 -0.229342237114906 0.347770124673843
0.029350000269711 0.0572499968335032 0.00564999974519014 16 0.133598178625107 -0.306417465209961 -0.21927709877491 0.39977815747261
0.0321500003114343 0.0572499968335032 0.00564999974519014 16 0.0966679602861404 -0.392325788736343 -0.184327691793442 0.444118142127991
0.0349500003531575 0.0572499968335032 0.00564999974519014 16 0.0773661583662033 -0.430507242679596 -0.1590506285429 0.465423583984375
-0.0350500006899238 0.05444999679178 0.00564999974519014 16 0.0775295123457909 -0.0501532107591629 -0.0488900989294052 0.104481637477875
-0.0322500006482005 0.05444999679178 0.00564999974519014 16 0.0790734365582466 -0.0511006452143192 -0.0506381131708622 0.106902308762074
-0.0294500006064773 0.05444999679178 0.00564999974519014 16 0.0772464498877525 -0.0642327964305878 -0.0468430481851101 0.110847361385822
-0.026650000564754 0.05444999679178 0.00564999974519014 16 0.0743379890918732 -0.110605970025063 -0.0503590330481529 0.142463505268097
-0.0238500005230308 0.05444999679178 0.00564999974519014 16 0.063703328371048 -0.194117203354836 -0.0484292097389698 0.209964260458946
-0.0210500004813075 0.05444999679178 0.00564999974519014 16 0.0466796979308128 -0.302492469549179 -0.0475870743393898 0.309750258922577
-0.0182500004395843 0.05444999679178 0.00564999974519014 16 0.0196089502424002 -0.39312019944191 -0.0273706559091806 0.394559442996979
-0.015450000397861 0.05444999679178 0.00564999974519014 16 -0.0176865980029106 -0.432306855916977 0.0103972032666206 0.432793408632278
-0.0126500003561378 0.05444999679178 0.00564999974519014 16 -0.0616009086370468 -0.388628363609314 0.0717154964804649 0.399962216615677
-0.0098500003144145 0.05444999679178 0.00564999974519014 16 -0.107614390552044 -0.263048440217972 0.139306664466858 0.316514909267426
-0.00705000027269125 0.05444999679178 0.00564999974519014 16 -0.138265445828438 -0.0721213892102242 0.195330455899239 0.249945625662804
-0.004250000230968 0.05444999679178 0.00564999974519014 16 -0.144369915127754 0.139589712023735 0.217895016074181 0.296321094036102
-0.00145000018924474 0.05444999679178 0.00564999974519014 16 -0.112887740135193 0.322076052427292 0.191064476966858 0.391129463911057
0.0013499998524785 0.05444999679178 0.00564999974519014 16 -0.0592639893293381 0.426793426275253 0.126630827784538 0.449110478162766
0.00414999989420176 0.05444999679178 0.00564999974519014 16 0.00364317325875163 0.435712069272995 0.0418090857565403 0.437728554010391
0.006949999935925 0.05444999679178 0.00564999974519014 16 0.0498248636722565 0.357659786939621 -0.0271295551210642 0.362131267786026
0.00974999997764826 0.05444999679178 0.00564999974519014 16 0.0796618983149529 0.233929872512817 -0.0712083876132965 0.257176667451859
0.0125500000193715 0.05444999679178 0.00564999974519014 16 0.0893987193703651 0.11026494204998 -0.0841222107410431 0.165006160736084
0.0153500000610948 0.05444999679178 0.00564999974519014 16 0.0933702513575554 0.0232512913644314 -0.0811728611588478 0.125887483358383
0.018150000102818 0.05444999679178 0.00564999974519014 16 0.0949427857995033 -0.0241496898233891 -0.0808165296912193 0.126998633146286
0.0209500001445413 0.05444999679178 0.00564999974519014 16 0.100687317550182 -0.0580423511564732 -0.0933607667684555 0.149074092507362
0.0237500001862645 0.05444999679178 0.00564999974519014 16 0.107058115303516 -0.113502830266953 -0.126129120588303 0.200631216168404
0.0265500002279878 0.05444999679178 0.00564999974519014 16 0.105097331106663 -0.208271637558937 -0.154242664575577 0.27966645359993
0.029350000269711 0.05444999679178 0.00564999974519014 16 0.0943787395954132 -0.323182910680771 -0.165480047464371 0.375150889158249
0.0321500003114343 0.05444999679178 0.00564999974519014 16 0.076798103749752 -0.423331379890442 -0.154451608657837 0.457124382257462
0.0349500003531575 0.05444999679178 0.00564999974519014 16 0.0680106654763222 -0.467709302902222 -0.143757551908493 0.494007766246796
-0.0350500006899238 0.0516499967500567 0.00564999974519014 16 -0.0429635755717754 -0.0501687563955784 0.0897115245461464 0.111404351890087
-0.0322500006482005 0.0516499967500567 0.00564999974519014 16 -0.043009202927351 -0.0546740032732487 0.0876447409391403 0.11189566552639
-0.0294500006064773 0.0516499967500567 0.00564999974519014 16 -0.042861346155405 -0.073730506002903 0.0846852362155914 0.120186820626259
-0.026650000564754 0.0516499967500567 0.00564999974519014 16 -0.0414116308093071 -0.123768754303455 0.0724954307079315 0.14929573237896
-0.0238500005230308 0.0516499967500567 0.00564999974519014 16 -0.0354978181421757 -0.207620203495026 0.0530289933085442 0.217205703258514
-0.0210500004813075 0.0516499967500567 0.00564999974519014 16 -0.0218298844993114 -0.312019407749176 0.0199282001703978 0.313416332006454
-0.0182500004395843 0.0516499967500567 0.00564999974519014 16 -0.00146889768075198 -0.39732101559639 -0.011721920222044 0.397496610879898
-0.015450000397861 0.0516499967500567 0.00564999974519014 16 0.0179918725043535 -0.430530607700348 -0.0376360267400742 0.432546854019165
-0.0126500003561378 0.0516499967500567 0.00564999974519014 16 0.0290942545980215 -0.383426457643509 -0.0395707078278065 0.386559396982193
-0.0098500003144145 0.0516499967500567 0.00564999974519014 16 0.0231678616255522 -0.256250947713852 -0.0190178640186787 0.257998019456863
-0.00705000027269125 0.0516499967500567 0.00564999974519014 16 0.00766466744244099 -0.0657965615391731 0.0201197192072868 0.0692295953631401
-0.004250000230968 0.0516499967500567 0.00564999974519014 16 -0.0115349888801575 0.147326573729515 0.0594877675175667 0.15930150449276
-0.00145000018924474 0.0516499967500567 0.00564999974519014 16 -0.0162870120257139 0.332965731620789 0.075886569917202 0.341892123222351
0.0013499998524785 0.0516499967500567 0.00564999974519014 16 -0.0115798348560929 0.442816972732544 0.0682479366660118 0.448194980621338
0.00414999989420176 0.0516499967500567 0.00564999974519014 16 0.00235936790704727 0.454597055912018 0.0385986901819706 0.456238895654678
0.006949999935925 0.0516499967500567 0.00564999974519014 16 0.00946958642452955 0.376077473163605 0.011408494785428 0.376369625329971
0.00974999997764826 0.0516499967500567 0.00564999974519014 16 0.0142966937273741 0.248626008629799 -0.00836895406246185 0.249177306890488
0.0125500000193715 0.0516499967500567 0.00564999974519014 16 0.0125205088406801 0.119988277554512 -0.0119708888232708 0.121232226490974
0.0153500000610948 0.0516499967500567 0.00564999974519014 16 0.013792647048831 0.0294376760721207 -0.00437792157754302 0.0328021347522736
0.018150000102818 0.0516499967500567 0.00564999974519014 16 0.0156243490055203 -0.0201585032045841 0.00301095610484481 0.0256817322224379
0.0209500001445413 0.0516499967500567 0.00564999974519014 16 0.0207920577377081 -0.0536641739308834 0.00379632110707462 0.0576763823628426
0.0237500001862645 0.0516499967500567 0.00564999974519014 16 0.0271598063409328 -0.108152583241463 -0.0192083865404129 0.113152988255024
0.0265500002279878 0.0516499967500567 0.00564999974519014 16 0.0323390327394009 -0.201383650302887 -0.0497244298458099 0.209937378764153
0.029350000269711 0.0516499967500567 0.00564999974519014 16 0.0384519509971142 -0.316812038421631 -0.0839116871356964 0.329984247684479
0.0321500003114343 0.0516499967500567 0.00564999974519014 16 0.0422852858901024 -0.418196707963943 -0.101043820381165 0.432303607463837
0.0349500003531575 0.0516499967500567 0.00564999974519014 16 0.0450930781662464 -0.463478207588196 -0.108144752681255 0.478059321641922
-0.0350500006899238 0.0488499967083335 0.00564999974519014 16 -0.143647581338882 -0.0520796738564968 0.191291660070419 0.244825273752213
-0.0322500006482005 0.0488499967083335 0.00564999974519014 16 -0.144793257117271 -0.0598812513053417 0.188575118780136 0.245176315307617
-0.0294500006064773 0.0488499967083335 0.00564999974519014 16 -0.143182277679443 -0.0857028365135193 0.177595555782318 0.243693083524704
-0.026650000564754 0.0488499967083335 0.00564999974519014 16 -0.135744526982307 -0.137291699647903 0.155054017901421 0.247623383998871
-0.0238500005230308 0.0488499967083335 0.00564999974519014 16 -0.11523649096489 -0.21350771188736 0.118314109742641 0.269931882619858
-0.0210500004813075 0.0488499967083335 0.00564999974519014 16 -0.0762593522667885 -0.299687832593918 0.0605690665543079 0.315114110708237
-0.0182500004395843 0.0488499967083335 0.00564999974519014 16 -0.0205638613551855 -0.364521563053131 -0.0078028510324657 0.365184485912323
-0.015450000397861 0.0488499967083335 0.00564999974519014 16 0.0428293086588383 -0.381304234266281 -0.0823092088103294 0.392430990934372
-0.0126500003561378 0.0488499967083335 0.00564999974519014 16 0.0975032821297646 -0.331272035837173 -0.135237693786621 0.370860189199448
-0.0098500003144145 0.0488499967083335 0.00564999974519014 16 0.127214595675468 -0.215269491076469 -0.156898036599159 0.295197397470474
-0.00705000027269125 0.0488499967083335 0.00564999974519014 16 0.127960413694382 -0.048852976411581 -0.138760268688202 0.194974079728127
-0.004250000230968 0.0488499967083335 0.00564999974519014 16 0.102455846965313 0.138060241937637 -0.0932895988225937 0.195603623986244
-0.00145000018924474 0.0488499967083335 0.00564999974519014 16 0.0699849203228951 0.30317896604538 -0.0450812429189682 0.314400523900986
0.0013499998524785 0.0488499967083335 0.00564999974519014 16 0.036496639251709 0.406600564718246 -0.00431835372000933 0.408258080482483
0.00414999989420176 0.0488499967083335 0.00564999974519014 16 0.0104659339413047 0.423800408840179 0.019866906106472 0.424394875764847
0.006949999935925 0.0488499967083335 0.00564999974519014 16 -0.0149713009595871 0.359625399112701 0.0380323641002178 0.361940652132034
0.00974999997764826 0.0488499967083335 0.00564999974519014 16 -0.0340940393507481 0.247032254934311 0.0514230169355869 0.254620641469955
0.0125500000193715 0.0488499967083335 0.00564999974519014 16 -0.049434807151556 0.129795372486115 0.0645660907030106 0.153164684772491
0.0153500000610948 0.0488499967083335 0.00564999974519014 16 -0.0548300519585609 0.0415152348577976 0.0788941979408264 0.104662045836449
0.018150000102818 0.0488499967083335 0.00564999974519014 16 -0.054389726370573 -0.0118828043341637 0.087819442152977 0.10397931188345
0.0209500001445413 0.0488499967083335 0.00564999974519014 16 -0.0484347566962242 -0.0501732416450977 0.0914062783122063 0.114971250295639
0.0237500001862645 0.0488499967083335 0.00564999974519014 16 -0.0398167259991169 -0.101299688220024 0.0731685012578964 0.131151169538498
0.0265500002279878 0.0488499967083335 0.00564999974519014 16 -0.02773043140769 -0.181797385215759 0.0426892042160034 0.188789919018745
0.029350000269711 0.0488499967083335 0.00564999974519014 16 -0.00940613821148872 -0.279821813106537 -0.00323960673995316 0.279998600482941
0.0321500003114343 0.0488499967083335 0.00564999974519014 16 0.0102520519867539 -0.366628080606461 -0.0393570810556412 0.368876963853836
0.0349500003531575 0.0488499967083335 0.00564999974519014 16 0.0213283002376556 -0.406671762466431 -0.0586512200534344 0.411432594060898
-0.0350500006899238 0.0460499966666102 0.00564999974519014 16 -0.188828200101852 -0.0490328036248684 0.24654994904995 0.314399719238281
-0.0322500006482005 0.0460499966666102 0.00564999974519014 16 -0.19028303027153 -0.061153344810009 0.238980069756508 0.31154265999794
-0.0294500006064773 0.0460499966666102 0.00564999974519014 16 -0.188461646437645 -0.0922987833619118 0.217807665467262 0.302451699972153
-0.026650000564754 0.0460499966666102 0.00564999974519014 16 -0.17667929828167 -0.14091183245182 0.183213397860527 0.290927588939667
-0.0238500005230308 0.0460499966666102 0.00564999974519014 16 -0.148503974080086 -0.202122613787651 0.135003373026848 0.28483834862709
-0.0210500004813075 0.0460499966666102 0.00564999974519014 16 -0.0976252779364586 -0.262808352708817 0.0668696761131287 0.288219511508942
-0.0182500004395843 0.0460499966666102 0.00564999974519014 16 -0.0291395448148251 -0.301330029964447 -0.0138245774433017 0.303051173686981
-0.015450000397861 0.0460499966666102 0.00564999974519014 16 0.0498613901436329 -0.300395131111145 -0.106940872967243 0.322737902402878
-0.0126500003561378 0.0460499966666102 0.00564999974519014 16 0.120157904922962 -0.250835716724396 -0.184489488601685 0.333755671977997
-0.0098500003144145 0.0460499966666102 0.00564999974519014 16 0.165226995944977 -0.155428931117058 -0.229753389954567 0.322869539260864
-0.00705000027269125 0.0460499966666102 0.00564999974519014 16 0.174292862415314 -0.0265118163079023 -0.226462006568909 0.286994636058807
-0.004250000230968 0.0460499966666102 0.00564999974519014 16 0.149001359939575 0.117346718907356 -0.181882277131081 0.262779027223587
-0.00145000018924474 0.0460499966666102 0.00564999974519014 16 0.105411201715469 0.245717108249664 -0.119907185435295 0.293029278516769
0.0013499998524785 0.0460499966666102 0.00564999974519014 16 0.0563671849668026 0.330382615327835 -0.0562491230666637 0.339843928813934
0.00414999989420176 0.0460499966666102 0.00564999974519014 16 0.0129685942083597 0.349597692489624 -0.00377685180865228 0.349858552217484
0.006949999935925 0.0460499966666102 0.00564999974519014 16 -0.0249881707131863 0.30634480714798 0.0383215807378292 0.309741973876953
0.00974999997764826 0.0460499966666102 0.00564999974519014 16 -0.0547594130039215 0.221999436616898 0.0716399401426315 0.239613488316536
0.0125500000193715 0.0460499966666102 0.00564999974519014 16 -0.0775954574346542 0.129768505692482 0.0970688536763191 0.179675489664078
0.0153500000610948 0.0460499966666102 0.00564999974519014 16 -0.0893757864832878 0.0517312586307526 0.119179181754589 0.15769536793232
0.018150000102818 0.0460499966666102 0.00564999974519014 16 -0.0912299305200577 -0.00331244128756225 0.131797522306442 0.160326093435287
0.0209500001445413 0.0460499966666102 0.00564999974519014 16 -0.0840890556573868 -0.0479473955929279 0.136486902832985 0.167327806353569
0.0237500001862645 0.0460499966666102 0.00564999974519014 16 -0.0718109086155891 -0.094799630343914 0.120958626270294 0.169631257653236
0.0265500002279878 0.0460499966666102 0.00564999974519014 16 -0.0536530464887619 -0.156942427158356 0.0904551222920418 0.188922479748726
0.029350000269711 0.0460499966666102 0.00564999974519014 16 -0.0290795806795359 -0.226223170757294 0.0420564524829388 0.231929495930672
0.0321500003114343 0.0460499966666102 0.00564999974519014 16 -0.00231627933681011 -0.286751002073288 -0.00123811466619372 0.286763042211533
0.0349500003531575 0.0460499966666102 0.00564999974519014 16 0.0117200249806046 -0.314508378505707 -0.0248973052948713 0.315709918737411
-0.0350500006899238 0.043249996624887 0.00564999974519014 16 -0.179576024413109 -0.0527705959975719 0.245574191212654 0.308770090341568
-0.0322500006482005 0.043249996624887 0.00564999974519014 16 -0.180277124047279 -0.0646935999393463 0.234932795166969 0.303114682435989
-0.0294500006064773 0.043249996624887 0.00564999974519014 16 -0.177931100130081 -0.0937613397836685 0.208382204174995 0.289609760046005
-0.026650000564754 0.043249996624887 0.00564999974519014 16 -0.164246514439583 -0.134243294596672 0.167319878935814 0.270174235105515
-0.0238500005230308 0.043249996624887 0.00564999974519014 16 -0.135571509599686 -0.179307892918587 0.116805262863636 0.253326714038849
-0.0210500004813075 0.043249996624887 0.00564999974519014 16 -0.0871972069144249 -0.217941701412201 0.0510915741324425 0.240233823657036
-0.0182500004395843 0.043249996624887 0.00564999974519014 16 -0.0250805169343948 -0.23539063334465 -0.0250134021043777 0.238040864467621
-0.015450000397861 0.043249996624887 0.00564999974519014 16 0.045541912317276 -0.222669988870621 -0.111891500651836 0.253329217433929
-0.0126500003561378 0.043249996624887 0.00564999974519014 16 0.107938706874847 -0.176725715398788 -0.186761289834976 0.278859317302704
-0.0098500003144145 0.043249996624887 0.00564999974519014 16 0.148681178689003 -0.102440945804119 -0.232209488749504 0.294145345687866
-0.00705000027269125 0.043249996624887 0.00564999974519014 16 0.157130435109138 -0.0083038117736578 -0.235308885574341 0.283071011304855
-0.004250000230968 0.043249996624887 0.00564999974519014 16 0.135705202817917 0.0947891622781754 -0.199581459164619 0.259294509887695
-0.00145000018924474 0.043249996624887 0.00564999974519014 16 0.0957266464829445 0.187888443470001 -0.143474414944649 0.255050122737885
0.0013499998524785 0.043249996624887 0.00564999974519014 16 0.051019262522459 0.252584189176559 -0.081480011343956 0.270260483026505
0.00414999989420176 0.043249996624887 0.00564999974519014 16 0.00966149009764194 0.272485107183456 -0.024978544563055 0.273798108100891
0.006949999935925 0.043249996624887 0.00564999974519014 16 -0.025413129478693 0.248113438487053 0.0212862174957991 0.250318199396133
0.00974999997764826 0.043249996624887 0.00564999974519014 16 -0.054618276655674 0.191522389650345 0.0600867345929146 0.208024993538857
0.0125500000193715 0.043249996624887 0.00564999974519014 16 -0.0779757723212242 0.124687887728214 0.0909377112984657 0.172907367348671
0.0153500000610948 0.043249996624887 0.00564999974519014 16 -0.0931390598416328 0.0605565123260021 0.118414930999279 0.162370160222054
0.018150000102818 0.043249996624887 0.00564999974519014 16 -0.0973015874624252 0.00803815387189388 0.134233191609383 0.165984213352203
0.0209500001445413 0.043249996624887 0.00564999974519014 16 -0.0889881774783134 -0.0394200570881367 0.136919468641281 0.167987436056137
0.0237500001862645 0.043249996624887 0.00564999974519014 16 -0.071864441037178 -0.0829766020178795 0.118782445788383 0.161737084388733
0.0265500002279878 0.043249996624887 0.00564999974519014 16 -0.0475763231515884 -0.130840629339218 0.0870820730924606 0.164213478565216
0.029350000269711 0.043249996624887 0.00564999974519014 16 -0.02014977671206 -0.176942303776741 0.0434423387050629 0.183308020234108
0.0321500003114343 0.043249996624887 0.00564999974519014 16 0.00707089668139815 -0.215736240148544 0.00571437738835812 0.215927720069885
0.0349500003531575 0.043249996624887 0.00564999974519014 16 0.0201004520058632 -0.233625188469887 -0.0141624761745334 0.23491558432579
-0.0350500006899238 0.0404499965831637 0.00564999974519014 16 -0.136105209589005 -0.0537301823496819 0.215833440423012 0.260759741067886
-0.0322500006482005 0.0404499965831637 0.00564999974519014 16 -0.136434316635132 -0.06431894749403 0.20539727807045 0.254831880331039
-0.0294500006064773 0.0404499965831637 0.00564999974519014 16 -0.134080454707146 -0.0886779725551605 0.181109026074409 0.242160752415657
-0.026650000564754 0.0404499965831637 0.00564999974519014 16 -0.121547438204288 -0.120127864181995 0.141258880496025 0.221717283129692
-0.0238500005230308 0.0404499965831637 0.00564999974519014 16 -0.0964629277586937 -0.152110144495964 0.0928901061415672 0.202660217881203
-0.0210500004813075 0.0404499965831637 0.00564999974519014 16 -0.0573457814753056 -0.175955817103386 0.033288300037384 0.18803483247757
-0.0182500004395843 0.0404499965831637 0.00564999974519014 16 -0.00972614716738462 -0.181712448596954 -0.0326783023774624 0.184883430600166
-0.015450000397861 0.0404499965831637 0.00564999974519014 16 0.0407145172357559 -0.164621368050575 -0.103586852550507 0.198716133832932
-0.0126500003561378 0.0404499965831637 0.00564999974519014 16 0.0834586322307587 -0.124731481075287 -0.165053084492683 0.223082512617111
-0.0098500003144145 0.0404499965831637 0.00564999974519014 16 0.1091503277421 -0.0669933706521988 -0.199717298150063 0.237252831459045
-0.00705000027269125 0.0404499965831637 0.00564999974519014 16 0.111855618655682 0.00272673228755593 -0.201201379299164 0.230219691991806
-0.004250000230968 0.0404499965831637 0.00564999974519014 16 0.0939815789461136 0.0773287564516068 -0.171526819467545 0.210318148136139
-0.00145000018924474 0.0404499965831637 0.00564999974519014 16 0.0629746615886688 0.144939303398132 -0.127843484282494 0.203266248106956
0.0013499998524785 0.0404499965831637 0.00564999974519014 16 0.0298301409929991 0.193082123994827 -0.0812285989522934 0.211585983633995
0.00414999989420176 0.0404499965831637 0.00564999974519014 16 -0.000923800747841597 0.211912140250206 -0.0393785499036312 0.215541824698448
0.006949999935925 0.0404499965831637 0.00564999974519014 16 -0.025896267965436 0.200789421796799 -0.00584942940622568 0.202536970376968
0.00974999997764826 0.0404499965831637 0.00564999974519014 16 -0.0477638207376003 0.16674642264843 0.0241274852305651 0.175122499465942
0.0125500000193715 0.0404499965831637 0.00564999974519014 16 -0.0669825598597527 0.121718905866146 0.0522182323038578 0.148421362042427
0.0153500000610948 0.0404499965831637 0.00564999974519014 16 -0.0816331058740616 0.0723986923694611 0.0809566006064415 0.135865762829781
0.018150000102818 0.0404499965831637 0.00564999974519014 16 -0.0866286233067513 0.0251490008085966 0.100728459656239 0.135215431451797
0.0209500001445413 0.0404499965831637 0.00564999974519014 16 -0.0776830390095711 -0.0219613164663315 0.105804421007633 0.133084669709206
0.0237500001862645 0.0404499965831637 0.00564999974519014 16 -0.0580784827470779 -0.0647705346345901 0.08973478525877 0.12498265504837
0.0265500002279878 0.0404499965831637 0.00564999974519014 16 -0.0307474005967379 -0.105318419635296 0.0616162307560444 0.125832960009575
0.029350000269711 0.0404499965831637 0.00564999974519014 16 -0.00272929901257157 -0.138382688164711 0.0248682796955109 0.140625923871994
0.0321500003114343 0.0404499965831637 0.00564999974519014 16 0.0229782797396183 -0.162723034620285 -0.00475656380876899 0.16440623998642
0.0349500003531575 0.0404499965831637 0.00564999974519014 16 0.0344557501375675 -0.172877013683319 -0.0203846879303455 0.177451953291893
-0.0350500006899238 0.0376499965414405 0.00564999974519014 16 -0.0937972590327263 -0.0578315407037735 0.182228028774261 0.212954148650169
-0.0322500006482005 0.0376499965414405 0.00564999974519014 16 -0.0931653305888176 -0.0658847391605377 0.173575878143311 0.207723766565323
-0.0294500006064773 0.0376499965414405 0.00564999974519014 16 -0.090155653655529 -0.08453269302845 0.154165089130402 0.197587177157402
-0.026650000564754 0.0376499965414405 0.00564999974519014 16 -0.0783067420125008 -0.10765827447176 0.118804089725018 0.178428307175636
-0.0238500005230308 0.0376499965414405 0.00564999974519014 16 -0.0566606558859348 -0.13068625330925 0.0740716829895973 0.160548880696297
-0.0210500004813075 0.0376499965414405 0.00564999974519014 16 -0.026229364797473 -0.146206438541412 0.0203071795403957 0.149922266602516
-0.0182500004395843 0.0376499965414405 0.00564999974519014 16 0.00832265615463257 -0.147711053490639 -0.0367275923490524 0.152436017990112
-0.015450000397861 0.0376499965414405 0.00564999974519014 16 0.0406505689024925 -0.131114020943642 -0.0916508808732033 0.165055260062218
-0.0126500003561378 0.0376499965414405 0.00564999974519014 16 0.0655716434121132 -0.0979243367910385 -0.135974034667015 0.179938197135925
-0.0098500003144145 0.0376499965414405 0.00564999974519014 16 0.0764893516898155 -0.0512590929865837 -0.15572153031826 0.180906906723976
-0.00705000027269125 0.0376499965414405 0.00564999974519014 16 0.0730508640408516 0.00403479486703873 -0.153487846255302 0.170033022761345