TITLE="DynamicStudio Exported Data"
VARIABLES= "X (m)[m]" "Y (m)[m]" "Z (m)[m]" "Status[-]" "U[-]" "V[-]" "W[-]" "Length[-]"
ZONE T="DynamicStudio Data" F=POINT
-0.0350500006899238 0.0600499968752265 0.00564999974519014 16 -0.0474461503326893 -0.400535613298416 0.0678057074546814 0.408995747566223
-0.0322500006482005 0.0600499968752265 0.00564999974519014 16 -0.0902319997549057 -0.386061877012253 0.124884992837906 0.415670335292816
-0.0294500006064773 0.0600499968752265 0.00564999974519014 16 -0.183667853474617 -0.340997576713562 0.247684791684151 0.45974013209343
-0.026650000564754 0.0600499968752265 0.00564999974519014 16 -0.279120713472366 -0.243844121694565 0.368561714887619 0.522691190242767
-0.0238500005230308 0.0600499968752265 0.00564999974519014 16 -0.344749689102173 -0.101091705262661 0.44418865442276 0.571292757987976
-0.0210500004813075 0.0600499968752265 0.00564999974519014 16 -0.351679265499115 0.0622571408748627 0.444012016057968 0.569825351238251
-0.0182500004395843 0.0600499968752265 0.00564999974519014 16 -0.301591008901596 0.206715911626816 0.371157079935074 0.521004974842072
-0.015450000397861 0.0600499968752265 0.00564999974519014 16 -0.203899279236794 0.304624110460281 0.245859026908875 0.441381275653839
-0.0126500003561378 0.0600499968752265 0.00564999974519014 16 -0.0860273689031601 0.343807458877563 0.0963126793503761 0.367260694503784
-0.0098500003144145 0.0600499968752265 0.00564999974519014 16 0.0286079347133636 0.327433824539185 -0.0422134846448898 0.331380903720856
-0.00705000027269125 0.0600499968752265 0.00564999974519014 16 0.118205569684505 0.270993024110794 -0.148603469133377 0.33089691400528
-0.004250000230968 0.0600499968752265 0.00564999974519014 16 0.17827869951725 0.194021373987198 -0.208605408668518 0.336071133613586
-0.00145000018924474 0.0600499968752265 0.00564999974519014 16 0.207969725131989 0.114570260047913 -0.23009118437767 0.33063530921936
0.0013499998524785 0.0600499968752265 0.00564999974519014 16 0.218797504901886 0.0406230241060257 -0.226093769073486 0.317239612340927
0.00414999989420176 0.0600499968752265 0.00564999974519014 16 0.216437697410583 -0.0301978513598442 -0.216473907232285 0.307600617408752
0.006949999935925 0.0600499968752265 0.00564999974519014 16 0.206550657749176 -0.104789599776268 -0.207973137497902 0.311282604932785
0.00974999997764826 0.0600499968752265 0.00564999974519014 16 0.183484584093094 -0.187668666243553 -0.194417744874954 0.326625734567642
0.0125500000193715 0.0600499968752265 0.00564999974519014 16 0.136421874165535 -0.271241009235382 -0.161154076457024 0.343734264373779
0.0153500000610948 0.0600499968752265 0.00564999974519014 16 0.0584749691188335 -0.340263247489929 -0.0952572450041771 0.358151286840439
0.018150000102818 0.0600499968752265 0.00564999974519014 16 -0.0479641519486904 -0.369581431150436 -0.00157887674868107 0.372684150934219
0.0209500001445413 0.0600499968752265 0.00564999974519014 16 -0.162590995430946 -0.340937733650208 0.108007460832596 0.392861276865005
0.0237500001862645 0.0600499968752265 0.00564999974519014 16 -0.255665242671967 -0.24376779794693 0.202072367072105 0.406965225934982
0.0265500002279878 0.0600499968752265 0.00564999974519014 16 -0.303783684968948 -0.0945495963096619 0.262494176626205 0.41246497631073
0.029350000269711 0.0600499968752265 0.00564999974519014 16 -0.302542686462402 0.0741003751754761 0.275067418813705 0.415553867816925
0.0321500003114343 0.0600499968752265 0.00564999974519014 16 -0.276232242584229 0.210207313299179 0.261605262756348 0.434659272432327
0.0349500003531575 0.0600499968752265 0.00564999974519014 16 -0.257208645343781 0.273207366466522 0.24714270234108 0.449308425188065
-0.0350500006899238 0.0572499968335032 0.00564999974519014 16 -0.0372752957046032 -0.428230077028275 0.0501347333192825 0.432763159275055
-0.0322500006482005 0.0572499968335032 0.00564999974519014 16 -0.0728529691696167 -0.414976924657822 0.100602880120277 0.433167815208435
-0.0294500006064773 0.0572499968335032 0.00564999974519014 16 -0.150281891226768 -0.368279963731766 0.207254603505135 0.448518961668015
-0.026650000564754 0.0572499968335032 0.00564999974519014 16 -0.230481788516045 -0.265949845314026 0.313852280378342 0.471544742584229
-0.0238500005230308 0.0572499968335032 0.00564999974519014 16 -0.287685871124268 -0.112609267234802 0.382394105195999 0.491598695516586
-0.0210500004813075 0.0572499968335032 0.00564999974519014 16 -0.296305656433105 0.0635581463575363 0.385915756225586 0.490680813789368
-0.0182500004395843 0.0572499968335032 0.00564999974519014 16 -0.257089078426361 0.220700085163116 0.325382262468338 0.469762623310089
-0.015450000397861 0.0572499968335032 0.00564999974519014 16 -0.175891876220703 0.32750004529953 0.217152237892151 0.430522173643112
-0.0126500003561378 0.0572499968335032 0.00564999974519014 16 -0.0767643302679062 0.370422005653381 0.0862501859664917 0.388000398874283
-0.0098500003144145 0.0572499968335032 0.00564999974519014 16 0.0211171638220549 0.35272616147995 -0.0360804349184036 0.355194985866547
-0.00705000027269125 0.0572499968335032 0.00564999974519014 16 0.0983851477503777 0.291108012199402 -0.130568772554398 0.333873808383942
-0.004250000230968 0.0572499968335032 0.00564999974519014 16 0.150556668639183 0.207629278302193 -0.183993458747864 0.315643489360809
-0.00145000018924474 0.0572499968335032 0.00564999974519014 16 0.175987184047699 0.121861830353737 -0.202186465263367 0.294450610876083
0.0013499998524785 0.0572499968335032 0.00564999974519014 16 0.183447733521461 0.0432329252362251 -0.195434391498566 0.271508306264877
0.00414999989420176 0.0572499968335032 0.00564999974519014 16 0.179157391190529 -0.0307948645204306 -0.182407006621361 0.257522821426392
0.006949999935925 0.0572499968335032 0.00564999974519014 16 0.168695330619812 -0.108412548899651 -0.170509293675423 0.263220071792603
0.00974999997764826 0.0572499968335032 0.00564999974519014 16 0.148937970399857 -0.194929853081703 -0.156890064477921 0.291195213794708
0.0125500000193715 0.0572499968335032 0.00564999974519014 16 0.11040910333395 -0.284361839294434 -0.128646343946457 0.331061482429504
0.0153500000610948 0.0572499968335032 0.00564999974519014 16 0.0471876226365566 -0.359703719615936 -0.074599027633667 0.370376080274582
0.018150000102818 0.0572499968335032 0.00564999974519014 16 -0.0398541912436485 -0.394801586866379 0.00174857606180012 0.396811932325363
0.0209500001445413 0.0572499968335032 0.00564999974519014 16 -0.133555710315704 -0.367167264223099 0.0896752402186394 0.400862276554108
0.0237500001862645 0.0572499968335032 0.00564999974519014 16 -0.209973722696304 -0.264976024627686 0.16312001645565 0.375379025936127
0.0265500002279878 0.0572499968335032 0.00564999974519014 16 -0.248613744974136 -0.103996738791466 0.20861779153347 0.340801268815994
0.029350000269711 0.0572499968335032 0.00564999974519014 16 -0.246793806552887 0.0786319896578789 0.216143980622292 0.337354987859726
0.0321500003114343 0.0572499968335032 0.00564999974519014 16 -0.224290177226067 0.226756617426872 0.204392030835152 0.378814935684204
0.0349500003531575 0.0572499968335032 0.00564999974519014 16 -0.208359196782112 0.294622123241425 0.192124500870705 0.408812403678894
-0.0350500006899238 0.05444999679178 0.00564999974519014 16 -0.0191895850002766 -0.470115602016449 0.0206081587821245 0.470958173274994
-0.0322500006482005 0.05444999679178 0.00564999974519014 16 -0.0359364859759808 -0.458341598510742 0.0515456721186638 0.462628781795502
-0.0294500006064773 0.05444999679178 0.00564999974519014 16 -0.0749958455562592 -0.409497201442719 0.118710771203041 0.43290251493454
-0.026650000564754 0.05444999679178 0.00564999974519014 16 -0.117345906794071 -0.298876225948334 0.189348727464676 0.372759968042374
-0.0238500005230308 0.05444999679178 0.00564999974519014 16 -0.152300506830215 -0.128540754318237 0.238858684897423 0.311081409454346
-0.0210500004813075 0.05444999679178 0.00564999974519014 16 -0.162268087267876 0.0678786560893059 0.248555868864059 0.304497063159943
-0.0182500004395843 0.05444999679178 0.00564999974519014 16 -0.147239610552788 0.244036912918091 0.215151906013489 0.357104808092117
-0.015450000397861 0.05444999679178 0.00564999974519014 16 -0.105608522891998 0.363540798425674 0.148184224963188 0.406538605690002
-0.0126500003561378 0.05444999679178 0.00564999974519014 16 -0.05155398696661 0.411691457033157 0.0620735734701157 0.419524490833282
-0.0098500003144145 0.05444999679178 0.00564999974519014 16 0.00570488860830665 0.392256498336792 -0.0204501319676638 0.392830640077591
-0.00705000027269125 0.05444999679178 0.00564999974519014 16 0.0523468591272831 0.323412984609604 -0.0856920927762985 0.338643312454224
-0.004250000230968 0.05444999679178 0.00564999974519014 16 0.0845081731677055 0.230433225631714 -0.121336564421654 0.273794949054718
-0.00145000018924474 0.05444999679178 0.00564999974519014 16 0.0986186340451241 0.134980112314224 -0.129798337817192 0.211643278598785
0.0013499998524785 0.05444999679178 0.00564999974519014 16 0.0990858897566795 0.0481726974248886 -0.1159358471632 0.159936681389809
0.00414999989420176 0.05444999679178 0.00564999974519014 16 0.0907768830657005 -0.0321114212274551 -0.0952444523572922 0.135436668992043
0.006949999935925 0.05444999679178 0.00564999974519014 16 0.0797471478581429 -0.11522576212883 -0.0770285502076149 0.159906163811684
0.00974999997764826 0.05444999679178 0.00564999974519014 16 0.0672885626554489 -0.206983342766762 -0.0644886866211891 0.226999223232269
0.0125500000193715 0.05444999679178 0.00564999974519014 16 0.0483154281973839 -0.303865343332291 -0.0506451427936554 0.311822801828384
0.0153500000610948 0.05444999679178 0.00564999974519014 16 0.0189680494368076 -0.387711763381958 -0.0266368836164474 0.389088302850723
0.018150000102818 0.05444999679178 0.00564999974519014 16 -0.0230877865105867 -0.430622220039368 0.00588452303782105 0.431280851364136
0.0209500001445413 0.05444999679178 0.00564999974519014 16 -0.068169467151165 -0.404175788164139 0.0426385104656219 0.412096083164215
0.0237500001862645 0.05444999679178 0.00564999974519014 16 -0.104609444737434 -0.294567137956619 0.0688448920845985 0.320082098245621
0.0265500002279878 0.05444999679178 0.00564999974519014 16 -0.120566256344318 -0.116914756596088 0.0824618190526962 0.187096863985062
0.029350000269711 0.05444999679178 0.00564999974519014 16 -0.116553232073784 0.0851513892412186 0.0789451003074646 0.164522767066956
0.0321500003114343 0.05444999679178 0.00564999974519014 16 -0.103170268237591 0.249979928135872 0.0709713473916054 0.279590785503387
0.0349500003531575 0.05444999679178 0.00564999974519014 16 -0.0945178270339966 0.324482560157776 0.0639137104153633 0.343958586454391
-0.0350500006899238 0.0516499967500567 0.00564999974519014 16 -0.00190346455201507 -0.476778715848923 -0.0208875145763159 0.477239817380905
-0.0322500006482005 0.0516499967500567 0.00564999974519014 16 0.0033711981959641 -0.464588910341263 -0.0128870140761137 0.464779853820801
-0.0294500006064773 0.0516499967500567 0.00564999974519014 16 0.0105512551963329 -0.413859158754349 0.00460080755874515 0.414019197225571
-0.026650000564754 0.0516499967500567 0.00564999974519014 16 0.0149861956015229 -0.301738768815994 0.0286363624036312 0.303464829921722
-0.0238500005230308 0.0516499967500567 0.00564999974519014 16 0.0102954432368279 -0.129185706377029 0.0509554333984852 0.139253005385399
-0.0210500004813075 0.0516499967500567 0.00564999974519014 16 0.00239332881756127 0.0696254670619965 0.0660474672913551 0.0959984436631203
-0.0182500004395843 0.0516499967500567 0.00564999974519014 16 -0.00744629185646772 0.249296963214874 0.065591111779213 0.25788876414299
-0.015450000397861 0.0516499967500567 0.00564999974519014 16 -0.0119032179936767 0.372103184461594 0.0528260879218578 0.376022696495056
-0.0126500003561378 0.0516499967500567 0.00564999974519014 16 -0.0126658482477069 0.422656118869781 0.028296297416091 0.423791587352753
-0.0098500003144145 0.0516499967500567 0.00564999974519014 16 -0.0079442486166954 0.404390394687653 0.00299778231419623 0.404479503631592
-0.00705000027269125 0.0516499967500567 0.00564999974519014 16 -0.00261414772830904 0.335044234991074 -0.0192278157919645 0.335605680942535
-0.004250000230968 0.0516499967500567 0.00564999974519014 16 0.00125872262287885 0.239627838134766 -0.0284213926643133 0.241310715675354
-0.00145000018924474 0.0516499967500567 0.00564999974519014 16 -0.00136201223358512 0.14009702205658 -0.022972047328949 0.141974464058876
0.0013499998524785 0.0516499967500567 0.00564999974519014 16 -0.00957017298787832 0.0481595359742641 -0.00224758009426296 0.0491526275873184
0.00414999989420176 0.0516499967500567 0.00564999974519014 16 -0.0208971314132214 -0.0363486111164093 0.0240228399634361 0.0483219251036644
0.006949999935925 0.0516499967500567 0.00564999974519014 16 -0.0288125593215227 -0.121913596987724 0.0443955771625042 0.132906198501587
0.00974999997764826 0.0516499967500567 0.00564999974519014 16 -0.0296944640576839 -0.213665559887886 0.05224634334445 0.221955880522728
0.0125500000193715 0.0516499967500567 0.00564999974519014 16 -0.0237277988344431 -0.309367805719376 0.0459872782230377 0.313665866851807
0.0153500000610948 0.0516499967500567 0.00564999974519014 16 -0.0124588729813695 -0.39184308052063 0.0317055583000183 0.393321067094803
0.018150000102818 0.0516499967500567 0.00564999974519014 16 -0.000132680142996833 -0.434667140245438 0.00758624915033579 0.434733331203461
0.0209500001445413 0.0516499967500567 0.00564999974519014 16 0.0139034604653716 -0.409015983343124 -0.0221767090260983 0.409852653741837
0.0237500001862645 0.0516499967500567 0.00564999974519014 16 0.0275187660008669 -0.301429629325867 -0.0584845878183842 0.308281630277634
0.0265500002279878 0.0516499967500567 0.00564999974519014 16 0.0404720529913902 -0.124056272208691 -0.087968111038208 0.157373234629631
0.029350000269711 0.0516499967500567 0.00564999974519014 16 0.0486859679222107 0.0782575607299805 -0.107410535216331 0.141533002257347
0.0321500003114343 0.0516499967500567 0.00564999974519014 16 0.0512464828789234 0.245530739426613 -0.111355997622013 0.274429768323898
0.0349500003531575 0.0516499967500567 0.00564999974519014 16 0.050958339124918 0.320456266403198 -0.112024143338203 0.343275934457779
-0.0350500006899238 0.0488499967083335 0.00564999974519014 16 0.0083690844476223 -0.427530080080032 -0.0534912534058094 0.430944681167603
-0.0322500006482005 0.0488499967083335 0.00564999974519014 16 0.0307076368480921 -0.414318323135376 -0.0654401034116745 0.420577019453049
-0.0294500006064773 0.0488499967083335 0.00564999974519014 16 0.0743398815393448 -0.36547988653183 -0.0898611024022102 0.38363653421402
-0.026650000564754 0.0488499967083335 0.00564999974519014 16 0.116731442511082 -0.262241333723068 -0.105266056954861 0.305741220712662
-0.0238500005230308 0.0488499967083335 0.00564999974519014 16 0.139434099197388 -0.106788627803326 -0.108053505420685 0.206206783652306
-0.0210500004813075 0.0488499967083335 0.00564999974519014 16 0.137118116021156 0.0709062293171883 -0.0913349688053131 0.179363161325455
-0.0182500004395843 0.0488499967083335 0.00564999974519014 16 0.111522063612938 0.231005996465683 -0.0669992342591286 0.265122324228287
-0.015450000397861 0.0488499967083335 0.00564999974519014 16 0.071885384619236 0.34060987830162 -0.0351849980652332 0.349886536598206
-0.0126500003561378 0.0488499967083335 0.00564999974519014 16 0.0273701343685389 0.3867467045784 -0.00662859110161662 0.387770652770996
-0.0098500003144145 0.0488499967083335 0.00564999974519014 16 -0.0122443223372102 0.37190443277359 0.0197678990662098 0.372630655765533
-0.00705000027269125 0.0488499967083335 0.00564999974519014 16 -0.0438498072326183 0.311518132686615 0.0397175662219524 0.317086488008499
-0.004250000230968 0.0488499967083335 0.00564999974519014 16 -0.0667745769023895 0.225275963544846 0.0589305274188519 0.242241442203522
-0.00145000018924474 0.0488499967083335 0.00564999974519014 16 -0.0857341960072517 0.132326290011406 0.0809625834226608 0.177244290709496
0.0013499998524785 0.0488499967083335 0.00564999974519014 16 -0.100950866937637 0.0424751117825508 0.108014829456806 0.153825923800468
0.00414999989420176 0.0488499967083335 0.00564999974519014 16 -0.112839542329311 -0.0412161275744438 0.135423555970192 0.181027814745903
0.006949999935925 0.0488499967083335 0.00564999974519014 16 -0.11549624055624 -0.12334219366312 0.151452139019966 0.226915016770363
0.00974999997764826 0.0488499967083335 0.00564999974519014 16 -0.105192840099335 -0.20627823472023 0.149280965328217 0.27550145983696
0.0125500000193715 0.0488499967083335 0.00564999974519014 16 -0.0787238851189613 -0.288257032632828 0.122038587927818 0.322773903608322
0.0153500000610948 0.0488499967083335 0.00564999974519014 16 -0.0360555425286293 -0.356451123952866 0.0729389563202858 0.365619331598282
0.018150000102818 0.0488499967083335 0.00564999974519014 16 0.0184613335877657 -0.390133291482925 0.000458640861324966 0.390570133924484
0.0209500001445413 0.0488499967083335 0.00564999974519014 16 0.0788965970277786 -0.365393072366714 -0.0843618363142014 0.383214920759201
0.0237500001862645 0.0488499967083335 0.00564999974519014 16 0.133069738745689 -0.271864891052246 -0.17032279074192 0.347315311431885
0.0265500002279878 0.0488499967083335 0.00564999974519014 16 0.169658347964287 -0.117764048278332 -0.232960745692253 0.311324656009674
0.029350000269711 0.0488499967083335 0.00564999974519014 16 0.18247278034687 0.0579482167959213 -0.265591621398926 0.327403753995895
0.0321500003114343 0.0488499967083335 0.00564999974519014 16 0.177123934030533 0.205463916063309 -0.26837283372879 0.381591796875
0.0349500003531575 0.0488499967083335 0.00564999974519014 16 0.170304238796234 0.271713137626648 -0.26503586769104 0.416023522615433
-0.0350500006899238 0.0460499966666102 0.00564999974519014 16 0.00849591009318829 -0.33741158246994 -0.0824387297034264 0.347440510988235
-0.0322500006482005 0.0460499966666102 0.00564999974519014 16 0.0364140123128891 -0.322505563497543 -0.102637365460396 0.34039717912674
-0.0294500006064773 0.0460499966666102 0.00564999974519014 16 0.092957004904747 -0.277491360902786 -0.145698234438896 0.326910436153412
-0.026650000564754 0.0460499966666102 0.00564999974519014 16 0.149982526898384 -0.191154897212982 -0.179154738783836 0.301879733800888
-0.0238500005230308 0.0460499966666102 0.00564999974519014 16 0.186057895421982 -0.0684025660157204 -0.194318935275078 0.277590185403824
-0.0210500004813075 0.0460499966666102 0.00564999974519014 16 0.190221101045609 0.0696733742952347 -0.177970856428146 0.269651770591736
-0.0182500004395843 0.0460499966666102 0.00564999974519014 16 0.163665398955345 0.19380134344101 -0.143052086234093 0.291220217943192
-0.015450000397861 0.0460499966666102 0.00564999974519014 16 0.113580010831356 0.279341846704483 -0.0893714502453804 0.314514756202698
-0.0126500003561378 0.0460499966666102 0.00564999974519014 16 0.0525732412934303 0.31674736738205 -0.0316090248525143 0.322632849216461
-0.0098500003144145 0.0460499966666102 0.00564999974519014 16 -0.00686637591570616 0.306181192398071 0.0255018528550863 0.307318091392517
-0.00705000027269125 0.0460499966666102 0.00564999974519014 16 -0.0574488416314125 0.259929984807968 0.0735170170664787 0.276167929172516
-0.004250000230968 0.0460499966666102 0.00564999974519014 16 -0.0956802517175674 0.190078005194664 0.112750425934792 0.240825697779655
-0.00145000018924474 0.0460499966666102 0.00564999974519014 16 -0.124324142932892 0.111642241477966 0.146354183554649 0.22212615609169
0.0013499998524785 0.0460499966666102 0.00564999974519014 16 -0.142330884933472 0.0314499363303185 0.175091773271561 0.227825164794922
0.00414999989420176 0.0460499966666102 0.00564999974519014 16 -0.15167173743248 -0.0449647046625614 0.197405844926834 0.252972722053528
0.006949999935925 0.0460499966666102 0.00564999974519014 16 -0.148172736167908 -0.117829494178295 0.204533383250237 0.2786985039711
0.00974999997764826 0.0460499966666102 0.00564999974519014 16 -0.13066491484642 -0.185908481478691 0.191707268357277 0.297299444675446
0.0125500000193715 0.0460499966666102 0.00564999974519014 16 -0.095126211643219 -0.247024208307266 0.151810243725777 0.305149644613266
0.0153500000610948 0.0460499966666102 0.00564999974519014 16 -0.0406114459037781 -0.29340386390686 0.0846197903156281 0.308051317930222
0.018150000102818 0.0460499966666102 0.00564999974519014 16 0.0300286076962948 -0.312906473875046 -0.0106356702744961 0.314523905515671
0.0209500001445413 0.0460499966666102 0.00564999974519014 16 0.108405403792858 -0.290293335914612 -0.120986111462116 0.332655370235443
0.0237500001862645 0.0460499966666102 0.00564999974519014 16 0.179069519042969 -0.219520151615143 -0.229513168334961 0.364597409963608
0.0265500002279878 0.0460499966666102 0.00564999974519014 16 0.225142225623131 -0.104121647775173 -0.307644307613373 0.395190268754959
0.029350000269711 0.0460499966666102 0.00564999974519014 16 0.239957988262177 0.0279648639261723 -0.347710639238358 0.423396468162537
0.0321500003114343 0.0460499966666102 0.00564999974519014 16 0.231219962239265 0.141294747591019 -0.351490259170532 0.443815588951111
0.0349500003531575 0.0460499966666102 0.00564999974519014 16 0.222216799855232 0.192822083830833 -0.348051488399506 0.455741703510284
-0.0350500006899238 0.043249996624887 0.00564999974519014 16 0.00312690017744899 -0.243369817733765 -0.0955748036503792 0.261482685804367
-0.0322500006482005 0.043249996624887 0.00564999974519014 16 0.0269760414958 -0.228259071707726 -0.115433149039745 0.257205605506897
-0.0294500006064773 0.043249996624887 0.00564999974519014 16 0.076250396668911 -0.188770368695259 -0.156284675002098 0.256657898426056
-0.026650000564754 0.043249996624887 0.00564999974519014 16 0.126745536923409 -0.120316952466965 -0.187443867325783 0.256272912025452
-0.0238500005230308 0.043249996624887 0.00564999974519014 16 0.16109910607338 -0.0291270613670349 -0.200808480381966 0.25908562541008
-0.0210500004813075 0.043249996624887 0.00564999974519014 16 0.168686032295227 0.0705389529466629 -0.184772089123726 0.259945094585419
-0.0182500004395843 0.043249996624887 0.00564999974519014 16 0.149640172719955 0.159491136670113 -0.151685893535614 0.266154497861862
-0.015450000397861 0.043249996624887 0.00564999974519014 16 0.108499594032764 0.220307692885399 -0.100849196314812 0.265477299690247
-0.0126500003561378 0.043249996624887 0.00564999974519014 16 0.0551183000206947 0.247289180755615 -0.0433337464928627 0.257036536931992
-0.0098500003144145 0.043249996624887 0.00564999974519014 16 0.000209358680876903 0.238622829318047 0.0173264592885971 0.239251136779785
-0.00705000027269125 0.043249996624887 0.00564999974519014 16 -0.0490138344466686 0.204225227236748 0.0737202316522598 0.222587004303932
-0.004250000230968 0.043249996624887 0.00564999974519014 16 -0.0873429849743843 0.15033757686615 0.121555246412754 0.21214585006237
-0.00145000018924474 0.043249996624887 0.00564999974519014 16 -0.114997319877148 0.0876951292157173 0.160016089677811 0.215684875845909
0.0013499998524785 0.043249996624887 0.00564999974519014 16 -0.129948049783707 0.0203120373189449 0.186692848801613 0.228370949625969
0.00414999989420176 0.043249996624887 0.00564999974519014 16 -0.134980350732803 -0.0452500581741333 0.200463861227036 0.245871961116791
0.006949999935925 0.043249996624887 0.00564999974519014 16 -0.127829134464264 -0.105711221694946 0.197402015328407 0.257842421531677
0.00974999997764826 0.043249996624887 0.00564999974519014 16 -0.10973347723484 -0.157354801893234 0.17585526406765 0.260244190692902
0.0125500000193715 0.043249996624887 0.00564999974519014 16 -0.0770780891180038 -0.198616832494736 0.132665365934372 0.250977635383606
0.0153500000610948 0.043249996624887 0.00564999974519014 16 -0.0291570983827114 -0.226355001330376 0.0665371790528297 0.237726554274559
0.018150000102818 0.043249996624887 0.00564999974519014 16 0.03359230235219 -0.235274419188499 -0.0235295221209526 0.238822385668755
0.0209500001445413 0.043249996624887 0.00564999974519014 16 0.103945322334766 -0.216895744204521 -0.12676414847374 0.271877825260162
0.0237500001862645 0.043249996624887 0.00564999974519014 16 0.16826918721199 -0.168004214763641 -0.227425515651703 0.329032361507416
0.0265500002279878 0.043249996624887 0.00564999974519014 16 0.209989815950394 -0.0894695818424225 -0.299731492996216 0.376748591661453
0.029350000269711 0.043249996624887 0.00564999974519014 16 0.223336309194565 0.000773667357861996 -0.338170856237411 0.405264377593994
0.0321500003114343 0.043249996624887 0.00564999974519014 16 0.215373322367668 0.0795039460062981 -0.343971639871597 0.413549333810806
0.0349500003531575 0.043249996624887 0.00564999974519014 16 0.207840964198112 0.115771532058716 -0.342880517244339 0.417334347963333
-0.0350500006899238 0.0404499965831637 0.00564999974519014 16 -0.00200462550856173 -0.169870525598526 -0.104090236127377 0.199235513806343
-0.0322500006482005 0.0404499965831637 0.00564999974519014 16 0.0135085768997669 -0.155375719070435 -0.118013799190521 0.195579528808594
-0.0294500006064773 0.0404499965831637 0.00564999974519014 16 0.046137098222971 -0.120213724672794 -0.145804211497307 0.194522082805634
-0.026650000564754 0.0404499965831637 0.00564999974519014 16 0.079991489648819 -0.0655350759625435 -0.164879158139229 0.194624304771423
-0.0238500005230308 0.0404499965831637 0.00564999974519014 16 0.10410749912262 0.00243417220190167 -0.169612258672714 0.199029177427292
-0.0210500004813075 0.0404499965831637 0.00564999974519014 16 0.111418314278126 0.0732923448085785 -0.153268873691559 0.203167796134949
-0.0182500004395843 0.0404499965831637 0.00564999974519014 16 0.100674189627171 0.136284738779068 -0.125158935785294 0.210650384426117
-0.015450000397861 0.0404499965831637 0.00564999974519014 16 0.0746000111103058 0.178560853004456 -0.0848034620285034 0.211283624172211
-0.0126500003561378 0.0404499965831637 0.00564999974519014 16 0.0382969491183758 0.196797862648964 -0.0380807481706142 0.204074010252953
-0.0098500003144145 0.0404499965831637 0.00564999974519014 16 -0.000420962751377374 0.187749594449997 0.0129736810922623 0.188197791576385
-0.00705000027269125 0.0404499965831637 0.00564999974519014 16 -0.03635623306036 0.159412637352943 0.063292920589447 0.175328716635704
-0.004250000230968 0.0404499965831637 0.00564999974519014 16 -0.0647350400686264 0.116051279008389 0.107300192117691 0.17079770565033
-0.00145000018924474 0.0404499965831637 0.00564999974519014 16 -0.0839891955256462 0.0658275485038757 0.141090616583824 0.176901131868362
0.0013499998524785 0.0404499965831637 0.00564999974519014 16 -0.0926024168729782 0.0115298666059971 0.161797434091568 0.186779424548149
0.00414999989420176 0.0404499965831637 0.00564999974519014 16 -0.0929036065936089 -0.0416499860584736 0.167893216013908 0.196351557970047
0.006949999935925 0.0404499965831637 0.00564999974519014 16 -0.0846700966358185 -0.0897339060902596 0.15915484726429 0.20137394964695
0.00974999997764826 0.0404499965831637 0.00564999974519014 16 -0.0698301494121552 -0.128589525818825 0.135716333985329 0.199575647711754
0.0125500000193715 0.0404499965831637 0.00564999974519014 16 -0.0453446358442307 -0.156525820493698 0.0970619097352028 0.189677312970161
0.0153500000610948 0.0404499965831637 0.00564999974519014 16 -0.0106566017493606 -0.172902628779411 0.0426607131958008 0.178406327962875
0.018150000102818 0.0404499965831637 0.00564999974519014 16 0.034944161772728 -0.176210448145866 -0.0290920361876488 0.181982308626175
0.0209500001445413 0.0404499965831637 0.00564999974519014 16 0.0862951427698135 -0.1627107411623 -0.110427096486092 0.214745849370956
0.0237500001862645 0.0404499965831637 0.00564999974519014 16 0.133802995085716 -0.130322635173798 -0.190307021141052 0.266653329133987
0.0265500002279878 0.0404499965831637 0.00564999974519014 16 0.164904117584229 -0.0790693014860153 -0.248596847057343 0.308619052171707
0.029350000269711 0.0404499965831637 0.00564999974519014 16 0.174997732043266 -0.019423570483923 -0.280822187662125 0.331455260515213
0.0321500003114343 0.0404499965831637 0.00564999974519014 16 0.169176906347275 0.033213634043932 -0.287358194589615 0.335109978914261
0.0349500003531575 0.0404499965831637 0.00564999974519014 16 0.163813501596451 0.057837899774313 -0.287735372781754 0.336112678050995
-0.0350500006899238 0.0376499965414405 0.00564999974519014 16 -0.000570672506000847 -0.124979421496391 -0.100291356444359 0.16024523973465
-0.0322500006482005 0.0376499965414405 0.00564999974519014 16 0.00748548470437527 -0.111690811812878 -0.109212212264538 0.156391099095345
-0.0294500006064773 0.0376499965414405 0.00564999974519014 16 0.0246361773461103 -0.0799807906150818 -0.125501841306686 0.150846213102341
-0.026650000564754 0.0376499965414405 0.00564999974519014 16 0.0423749536275864 -0.0339130572974682 -0.133601471781731 0.144205018877983
-0.0238500005230308 0.0376499965414405 0.00564999974519014 16 0.0546514578163624 0.0211775656789541 -0.130025640130043 0.142625167965889
-0.0210500004813075 0.0376499965414405 0.00564999974519014 16 0.0578997880220413 0.0760360807180405 -0.11213368922472 0.147335797548294
-0.0182500004395843 0.0376499965414405 0.00564999974519014 16 0.0504460744559765 0.124451041221619 -0.0872196182608604 0.160125359892845
-0.015450000397861 0.0376499965414405 0.00564999974519014 16 0.034737441688776 0.155769765377045 -0.0565774962306023 0.169327855110168
-0.0126500003561378 0.0376499965414405 0.00564999974519014 16 0.012612909078598 0.167739704251289 -0.0221208669245243 0.16966150701046
-0.0098500003144145 0.0376499965414405 0.00564999974519014 16 -0.0107440240681171 0.156936123967171 0.0155444853007793 0.158069640398026
-0.00705000027269125 0.0376499965414405 0.00564999974519014 16 -0.0320381410419941 0.130224600434303 0.0541997849941254 0.144646137952805
-0.004250000230968 0.0376499965414405 0.00564999974519014 16 -0.0480333492159843 0.0922511518001556 0.0886808410286903 0.136681258678436