TITLE="DynamicStudio Exported Data"
VARIABLES= "X (m)[m]" "Y (m)[m]" "Z (m)[m]" "Status[-]" "U[-]" "V[-]" "W[-]" "Length[-]"
ZONE T="DynamicStudio Data" F=POINT
-0.0350500006899238 0.0600499968752265 0.00564999974519014 16 -0.380032986402512 0.0221251398324966 0.467340052127838 0.602761387825012
-0.0322500006482005 0.0600499968752265 0.00564999974519014 16 -0.355419158935547 0.0756665095686913 0.436417460441589 0.567898213863373
-0.0294500006064773 0.0600499968752265 0.00564999974519014 16 -0.289754271507263 0.184595182538033 0.356678575277328 0.495229750871658
-0.026650000564754 0.0600499968752265 0.00564999974519014 16 -0.192229062318802 0.282046556472778 0.244579076766968 0.419906169176102
-0.0238500005230308 0.0600499968752265 0.00564999974519014 16 -0.0815578550100327 0.336986273527145 0.125619456171989 0.368770480155945
-0.0210500004813075 0.0600499968752265 0.00564999974519014 16 0.0214723329991102 0.334170758724213 0.0215411596000195 0.33555206656456
-0.0182500004395843 0.0600499968752265 0.00564999974519014 16 0.104661136865616 0.293152332305908 -0.0495539903640747 0.315194934606552
-0.015450000397861 0.0600499968752265 0.00564999974519014 16 0.162001192569733 0.221241503953934 -0.0915350690484047 0.289086252450943
-0.0126500003561378 0.0600499968752265 0.00564999974519014 16 0.196253955364227 0.138445839285851 -0.107979066669941 0.263329356908798
-0.0098500003144145 0.0600499968752265 0.00564999974519014 16 0.208910867571831 0.0521951392292976 -0.116072990000248 0.244624242186546
-0.00705000027269125 0.0600499968752265 0.00564999974519014 16 0.206162318587303 -0.0232062265276909 -0.12212760001421 0.240741729736328
-0.004250000230968 0.0600499968752265 0.00564999974519014 16 0.193366974592209 -0.0937530025839806 -0.13421306014061 0.253364473581314
-0.00145000018924474 0.0600499968752265 0.00564999974519014 16 0.171598345041275 -0.162860453128815 -0.142643123865128 0.276254564523697
0.0013499998524785 0.0600499968752265 0.00564999974519014 16 0.136017024517059 -0.237468779087067 -0.135227218270302 0.305251449346542
0.00414999989420176 0.0600499968752265 0.00564999974519014 16 0.0744880512356758 -0.304717928171158 -0.0953236818313599 0.32785376906395
0.006949999935925 0.0600499968752265 0.00564999974519014 16 -0.0138943819329143 -0.343163907527924 -0.0214802473783493 0.344116151332855
0.00974999997764826 0.0600499968752265 0.00564999974519014 16 -0.123319022357464 -0.326819598674774 0.0827737003564835 0.3589848279953
0.0125500000193715 0.0600499968752265 0.00564999974519014 16 -0.225230440497398 -0.242314681410789 0.195024952292442 0.384031116962433
0.0153500000610948 0.0600499968752265 0.00564999974519014 16 -0.297284334897995 -0.100643128156662 0.296080410480499 0.431474924087524
0.018150000102818 0.0600499968752265 0.00564999974519014 16 -0.315314143896103 0.0703633204102516 0.353642791509628 0.478996068239212
0.0209500001445413 0.0600499968752265 0.00564999974519014 16 -0.281973302364349 0.223732635378838 0.363099873065948 0.51127952337265
0.0237500001862645 0.0600499968752265 0.00564999974519014 16 -0.206721246242523 0.328843951225281 0.320431560277939 0.50353592634201
0.0265500002279878 0.0600499968752265 0.00564999974519014 16 -0.113384954631329 0.368150323629379 0.253836542367935 0.46132829785347
0.029350000269711 0.0600499968752265 0.00564999974519014 16 -0.0212112460285425 0.35882493853569 0.176930204033852 0.400636434555054
0.0321500003114343 0.0600499968752265 0.00564999974519014 16 0.0478358678519726 0.329629242420197 0.118823744356632 0.353642195463181
0.0349500003531575 0.0600499968752265 0.00564999974519014 16 0.0779329165816307 0.312925487756729 0.0922154188156128 0.335409581661224
-0.0350500006899238 0.0572499968335032 0.00564999974519014 16 -0.316842794418335 0.0261073783040047 0.408550381660461 0.517672061920166
-0.0322500006482005 0.0572499968335032 0.00564999974519014 16 -0.295069009065628 0.08525750041008 0.379702806472778 0.488373607397079
-0.0294500006064773 0.0572499968335032 0.00564999974519014 16 -0.23996376991272 0.203490972518921 0.311222165822983 0.442549914121628
-0.026650000564754 0.0572499968335032 0.00564999974519014 16 -0.158255502581596 0.310399889945984 0.214843943715096 0.4093297123909
-0.0238500005230308 0.0572499968335032 0.00564999974519014 16 -0.0658236742019653 0.368775546550751 0.113676875829697 0.391472339630127
-0.0210500004813075 0.0572499968335032 0.00564999974519014 16 0.0196256432682276 0.36394390463829 0.0249098055064678 0.365322917699814
-0.0182500004395843 0.0572499968335032 0.00564999974519014 16 0.0883055403828621 0.315375328063965 -0.0350338742136955 0.329373389482498
-0.015450000397861 0.0572499968335032 0.00564999974519014 16 0.135719776153564 0.234490096569061 -0.0697263777256012 0.279762804508209
-0.0126500003561378 0.0572499968335032 0.00564999974519014 16 0.164236694574356 0.143283143639565 -0.0819461420178413 0.232849583029747
-0.0098500003144145 0.0572499968335032 0.00564999974519014 16 0.174576535820961 0.0513776130974293 -0.0862928554415703 0.201402798295021
-0.00705000027269125 0.0572499968335032 0.00564999974519014 16 0.17065654695034 -0.0272293481975794 -0.087637260556221 0.193766310811043
-0.004250000230968 0.0572499968335032 0.00564999974519014 16 0.158396691083908 -0.0998932868242264 -0.0949389338493347 0.209956154227257
-0.00145000018924474 0.0572499968335032 0.00564999974519014 16 0.139449268579483 -0.171615406870842 -0.101359769701958 0.243252441287041
0.0013499998524785 0.0572499968335032 0.00564999974519014 16 0.112154759466648 -0.25064805150032 -0.0999725684523582 0.292228758335114
0.00414999989420176 0.0572499968335032 0.00564999974519014 16 0.0647057741880417 -0.324067205190659 -0.0746847093105316 0.33879816532135
0.006949999935925 0.0572499968335032 0.00564999974519014 16 -0.00456397980451584 -0.368461102247238 -0.023350652307272 0.369228482246399
0.00974999997764826 0.0572499968335032 0.00564999974519014 16 -0.0928079709410667 -0.355212837457657 0.0551767796278 0.371259957551956
0.0125500000193715 0.0572499968335032 0.00564999974519014 16 -0.176580235362053 -0.267131000757217 0.143639639019966 0.350958526134491
0.0153500000610948 0.0572499968335032 0.00564999974519014 16 -0.237385272979736 -0.114932015538216 0.22882504761219 0.349173367023468
0.018150000102818 0.0572499968335032 0.00564999974519014 16 -0.256115823984146 0.071462906897068 0.284566611051559 0.389461696147919
0.0209500001445413 0.0572499968335032 0.00564999974519014 16 -0.23323555290699 0.239272594451904 0.305229872465134 0.452565431594849
0.0237500001862645 0.0572499968335032 0.00564999974519014 16 -0.176578015089035 0.353089034557343 0.286018818616867 0.487502217292786
0.0265500002279878 0.0572499968335032 0.00564999974519014 16 -0.102831438183784 0.393677562475204 0.243617311120033 0.474242269992828
0.029350000269711 0.0572499968335032 0.00564999974519014 16 -0.0287682022899389 0.380525052547455 0.189803823828697 0.426207035779953
0.0321500003114343 0.0572499968335032 0.00564999974519014 16 0.0282749477773905 0.346307545900345 0.144705474376678 0.376388192176819
0.0349500003531575 0.0572499968335032 0.00564999974519014 16 0.0530138276517391 0.32662495970726 0.123813733458519 0.353304624557495
-0.0350500006899238 0.05444999679178 0.00564999974519014 16 -0.160456001758575 0.0342849977314472 0.250423789024353 0.29938879609108
-0.0322500006482005 0.05444999679178 0.00564999974519014 16 -0.149258643388748 0.102011770009995 0.233590096235275 0.295379221439362
-0.0294500006064773 0.05444999679178 0.00564999974519014 16 -0.119481205940247 0.235254749655724 0.193606555461884 0.327267557382584
-0.026650000564754 0.05444999679178 0.00564999974519014 16 -0.0751639157533646 0.355993330478668 0.13520647585392 0.388151586055756
-0.0238500005230308 0.05444999679178 0.00564999974519014 16 -0.0260939933359623 0.41846239566803 0.0777585953474045 0.426424741744995
-0.0210500004813075 0.05444999679178 0.00564999974519014 16 0.0167738851159811 0.408810168504715 0.0288601499050856 0.41017073392868
-0.0182500004395843 0.05444999679178 0.00564999974519014 16 0.0492476560175419 0.348383516073227 0.000645351770799607 0.351847738027573
-0.015450000397861 0.05444999679178 0.00564999974519014 16 0.0714246183633804 0.255004554986954 -0.0147872092202306 0.26523095369339
-0.0126500003561378 0.05444999679178 0.00564999974519014 16 0.0849537253379822 0.152987971901894 -0.0156386867165565 0.1756901293993
-0.0098500003144145 0.05444999679178 0.00564999974519014 16 0.0899861752986908 0.0529168471693993 -0.0130474912002683 0.105204284191132
-0.00705000027269125 0.05444999679178 0.00564999974519014 16 0.0847330763936043 -0.0320064313709736 -0.00560435745865107 0.0907497406005859
-0.004250000230968 0.05444999679178 0.00564999974519014 16 0.0754616931080818 -0.110169813036919 -0.00575613975524902 0.133659973740578
-0.00145000018924474 0.05444999679178 0.00564999974519014 16 0.0643084645271301 -0.187006875872612 -0.0114918006584048 0.198088899254799
0.0013499998524785 0.05444999679178 0.00564999974519014 16 0.0560241527855396 -0.272096872329712 -0.0258614905178547 0.279005795717239
0.00414999989420176 0.05444999679178 0.00564999974519014 16 0.0406639538705349 -0.353368848562241 -0.0346141122281551 0.357381075620651
0.006949999935925 0.05444999679178 0.00564999974519014 16 0.0152575969696045 -0.405637949705124 -0.0326882749795914 0.407238841056824
0.00974999997764826 0.05444999679178 0.00564999974519014 16 -0.0239957738667727 -0.39610755443573 -0.0106487441807985 0.396976560354233
0.0125500000193715 0.05444999679178 0.00564999974519014 16 -0.0650791078805923 -0.302523791790009 0.0253212861716747 0.310478836297989
0.0153500000610948 0.05444999679178 0.00564999974519014 16 -0.0986771583557129 -0.135048016905785 0.0732581540942192 0.182597666978836
0.018150000102818 0.05444999679178 0.00564999974519014 16 -0.115453273057938 0.073234461247921 0.120731078088284 0.182397201657295
0.0209500001445413 0.05444999679178 0.00564999974519014 16 -0.113336317241192 0.2620490193367 0.16322685778141 0.328873574733734
0.0237500001862645 0.05444999679178 0.00564999974519014 16 -0.0964600667357445 0.390250474214554 0.193267941474915 0.446040868759155
0.0265500002279878 0.05444999679178 0.00564999974519014 16 -0.0682697147130966 0.433956980705261 0.207201823592186 0.485707730054855
0.029350000269711 0.05444999679178 0.00564999974519014 16 -0.037936870008707 0.415464699268341 0.207175642251968 0.465802401304245
0.0321500003114343 0.05444999679178 0.00564999974519014 16 -0.0115934340283275 0.372135847806931 0.196645125746727 0.421056777238846
0.0349500003531575 0.05444999679178 0.00564999974519014 16 6.46504413452931e-05 0.347374051809311 0.191515848040581 0.396669954061508
-0.0350500006899238 0.0516499967500567 0.00564999974519014 16 0.0208072420209646 0.0476764664053917 0.0625424161553383 0.0813482701778412
-0.0322500006482005 0.0516499967500567 0.00564999974519014 16 0.0220195613801479 0.115674324333668 0.056274987757206 0.130507797002792
-0.0294500006064773 0.0516499967500567 0.00564999974519014 16 0.0238304790109396 0.249510616064072 0.0482699573040009 0.255251705646515
-0.026650000564754 0.0516499967500567 0.00564999974519014 16 0.0243681762367487 0.372736036777496 0.0367519222199917 0.375335395336151
-0.0238500005230308 0.0516499967500567 0.00564999974519014 16 0.0217790827155113 0.435804754495621 0.0336603038012981 0.437644988298416
-0.0210500004813075 0.0516499967500567 0.00564999974519014 16 0.0140755716711283 0.425508141517639 0.0334752835333347 0.427054911851883
-0.0182500004395843 0.0516499967500567 0.00564999974519014 16 0.00312064052559435 0.360567808151245 0.0444230809807777 0.363307446241379
-0.015450000397861 0.0516499967500567 0.00564999974519014 16 -0.00542305037379265 0.262658298015594 0.0536919012665749 0.268144756555557
-0.0126500003561378 0.0516499967500567 0.00564999974519014 16 -0.0117202159017324 0.155954003334045 0.0694439858198166 0.171118319034576
-0.0098500003144145 0.0516499967500567 0.00564999974519014 16 -0.0149722136557102 0.0526609532535076 0.0817678570747375 0.0984038934111595
-0.00705000027269125 0.0516499967500567 0.00564999974519014 16 -0.0221618972718716 -0.0361022055149078 0.0986767187714577 0.107385352253914
-0.004250000230968 0.0516499967500567 0.00564999974519014 16 -0.0267412588000298 -0.117460362613201 0.103775672614574 0.15900132060051
-0.00145000018924474 0.0516499967500567 0.00564999974519014 16 -0.0261158775538206 -0.196330308914185 0.0940271317958832 0.219245821237564
0.0013499998524785 0.0516499967500567 0.00564999974519014 16 -0.0106008043512702 -0.280774652957916 0.0576895363628864 0.286835968494415
0.00414999989420176 0.0516499967500567 0.00564999974519014 16 0.0125189172104001 -0.36038476228714 0.00597306480631232 0.360651612281799
0.006949999935925 0.0516499967500567 0.00564999974519014 16 0.0377155691385269 -0.411994636058807 -0.0507064759731293 0.416813135147095
0.00974999997764826 0.0516499967500567 0.00564999974519014 16 0.0555133298039436 -0.403711318969727 -0.0970774441957474 0.418913573026657
0.0125500000193715 0.0516499967500567 0.00564999974519014 16 0.0649940893054008 -0.312877893447876 -0.124413222074509 0.342921942472458
0.0153500000610948 0.0516499967500567 0.00564999974519014 16 0.0655008032917976 -0.146461561322212 -0.123075440526009 0.202210068702698
0.018150000102818 0.0516499967500567 0.00564999974519014 16 0.0541081726551056 0.0634090751409531 -0.0863608345389366 0.120027489960194
0.0209500001445413 0.0516499967500567 0.00564999974519014 16 0.033300019800663 0.257665902376175 -0.0177505519241095 0.260414451360703
0.0237500001862645 0.0516499967500567 0.00564999974519014 16 0.00283358083106577 0.392998963594437 0.0713125988841057 0.399426698684692
0.0265500002279878 0.0516499967500567 0.00564999974519014 16 -0.0263791121542454 0.44241014122963 0.154165521264076 0.46924364566803
0.029350000269711 0.0516499967500567 0.00564999974519014 16 -0.051494937390089 0.427540838718414 0.21906965970993 0.483150511980057
0.0321500003114343 0.0516499967500567 0.00564999974519014 16 -0.0654842033982277 0.383948355913162 0.251820623874664 0.463808298110962
0.0349500003531575 0.0516499967500567 0.00564999974519014 16 -0.0713953003287315 0.359396815299988 0.265300542116165 0.452380061149597
-0.0350500006899238 0.0488499967083335 0.00564999974519014 16 0.166869193315506 0.0542583577334881 -0.105188272893429 0.204582184553146
-0.0322500006482005 0.0488499967083335 0.00564999974519014 16 0.160023838281631 0.114945843815804 -0.100117094814777 0.221005901694298
-0.0294500006064773 0.0488499967083335 0.00564999974519014 16 0.141300514340401 0.233181595802307 -0.0808694213628769 0.284392982721329
-0.026650000564754 0.0488499967083335 0.00564999974519014 16 0.109098330140114 0.343112796545029 -0.0535795800387859 0.36400493979454
-0.0238500005230308 0.0488499967083335 0.00564999974519014 16 0.0664438381791115 0.399399757385254 -0.0113992355763912 0.405049234628677
-0.0210500004813075 0.0488499967083335 0.00564999974519014 16 0.017801932990551 0.391414046287537 0.0319673828780651 0.393120557069778
-0.0182500004395843 0.0488499967083335 0.00564999974519014 16 -0.0300634391605854 0.333326548337936 0.080175094306469 0.344148874282837
-0.015450000397861 0.0488499967083335 0.00564999974519014 16 -0.0666873157024384 0.246206805109978 0.11536068469286 0.279951900243759
-0.0126500003561378 0.0488499967083335 0.00564999974519014 16 -0.0919020250439644 0.148836031556129 0.148472353816032 0.229438856244087
-0.0098500003144145 0.0488499967083335 0.00564999974519014 16 -0.103743381798267 0.0528656058013439 0.16961233317852 0.205732360482216
-0.00705000027269125 0.0488499967083335 0.00564999974519014 16 -0.111334040760994 -0.0341927260160446 0.189809754490852 0.222692966461182
-0.004250000230968 0.0488499967083335 0.00564999974519014 16 -0.109748646616936 -0.114659182727337 0.191398754715919 0.248646289110184
-0.00145000018924474 0.0488499967083335 0.00564999974519014 16 -0.0964248478412628 -0.190499410033226 0.169867768883705 0.272842139005661
0.0013499998524785 0.0488499967083335 0.00564999974519014 16 -0.060791801661253 -0.265342026948929 0.111909985542297 0.29432275891304
0.00414999989420176 0.0488499967083335 0.00564999974519014 16 -0.00792769528925419 -0.331664144992828 0.0273266769945621 0.332882404327393
0.006949999935925 0.0488499967083335 0.00564999974519014 16 0.0549124479293823 -0.372304797172546 -0.0712142288684845 0.383011370897293
0.00974999997764826 0.0488499967083335 0.00564999974519014 16 0.115193210542202 -0.361791968345642 -0.167289435863495 0.414907991886139
0.0125500000193715 0.0488499967083335 0.00564999974519014 16 0.163897767663002 -0.282170653343201 -0.243530869483948 0.407173246145248
0.0153500000610948 0.0488499967083335 0.00564999974519014 16 0.19315904378891 -0.137116923928261 -0.281953305006027 0.368251442909241
0.018150000102818 0.0488499967083335 0.00564999974519014 16 0.191195592284203 0.0466049537062645 -0.260493248701096 0.326472818851471
0.0209500001445413 0.0488499967083335 0.00564999974519014 16 0.157620385289192 0.22162663936615 -0.179016709327698 0.325591057538986
0.0237500001862645 0.0488499967083335 0.00564999974519014 16 0.0937000066041946 0.349563658237457 -0.049789372831583 0.365312784910202
0.0265500002279878 0.0488499967083335 0.00564999974519014 16 0.018767774105072 0.403768360614777 0.0862286612391472 0.413299530744553
0.029350000269711 0.0488499967083335 0.00564999974519014 16 -0.0534152537584305 0.399620324373245 0.20495118200779 0.452277094125748
0.0321500003114343 0.0488499967083335 0.00564999974519014 16 -0.103584915399551 0.364897012710571 0.277889311313629 0.470214992761612
0.0349500003531575 0.0488499967083335 0.00564999974519014 16 -0.124865867197514 0.344612330198288 0.308628112077713 0.47916641831398
-0.0350500006899238 0.0460499966666102 0.00564999974519014 16 0.219616398215294 0.0588859990239143 -0.180993363261223 0.290615767240524
-0.0322500006482005 0.0460499966666102 0.00564999974519014 16 0.211412191390991 0.10412510484457 -0.170891001820564 0.291102886199951
-0.0294500006064773 0.0460499966666102 0.00564999974519014 16 0.187995240092278 0.193163380026817 -0.139465719461441 0.303488045930862
-0.026650000564754 0.0460499966666102 0.00564999974519014 16 0.146720111370087 0.278081297874451 -0.0952516198158264 0.328525304794312
-0.0238500005230308 0.0460499966666102 0.00564999974519014 16 0.09075827896595 0.323943495750427 -0.0342951528728008 0.338160634040833
-0.0210500004813075 0.0460499966666102 0.00564999974519014 16 0.026850251480937 0.321406573057175 0.0279795695096254 0.323737502098083
-0.0182500004395843 0.0460499966666102 0.00564999974519014 16 -0.035962738096714 0.277728497982025 0.0939024165272713 0.295371115207672
-0.015450000397861 0.0460499966666102 0.00564999974519014 16 -0.0862062051892281 0.209092542529106 0.144517466425896 0.26839616894722
-0.0126500003561378 0.0460499966666102 0.00564999974519014 16 -0.121542923152447 0.12813326716423 0.187874346971512 0.257851868867874
-0.0098500003144145 0.0460499966666102 0.00564999974519014 16 -0.139774918556213 0.0459506325423717 0.213591203093529 0.259364008903503
-0.00705000027269125 0.0460499966666102 0.00564999974519014 16 -0.147214472293854 -0.0327438861131668 0.230821520090103 0.27572238445282
-0.004250000230968 0.0460499966666102 0.00564999974519014 16 -0.141042485833168 -0.105761632323265 0.225225433707237 0.286015748977661
-0.00145000018924474 0.0460499966666102 0.00564999974519014 16 -0.11924147605896 -0.172428861260414 0.192964717745781 0.284930914640427
0.0013499998524785 0.0460499966666102 0.00564999974519014 16 -0.0742484778165817 -0.231810912489891 0.123765125870705 0.273069500923157
0.00414999989420176 0.0460499966666102 0.00564999974519014 16 -0.0110773202031851 -0.278732866048813 0.0274718068540096 0.280302345752716
0.006949999935925 0.0460499966666102 0.00564999974519014 16 0.0634882673621178 -0.303279042243958 -0.0854120254516602 0.321409612894058
0.00974999997764826 0.0460499966666102 0.00564999974519014 16 0.137025862932205 -0.290004253387451 -0.199114799499512 0.377525180578232
0.0125500000193715 0.0460499966666102 0.00564999974519014 16 0.200187340378761 -0.228202953934669 -0.296332806348801 0.424222469329834
0.0153500000610948 0.0460499966666102 0.00564999974519014 16 0.241968274116516 -0.118810661137104 -0.353578090667725 0.44461452960968
0.018150000102818 0.0460499966666102 0.00564999974519014 16 0.247720062732697 0.0208070147782564 -0.343480974435806 0.424001574516296
0.0209500001445413 0.0460499966666102 0.00564999974519014 16 0.212694942951202 0.159266397356987 -0.262215137481689 0.373311817646027
0.0237500001862645 0.0460499966666102 0.00564999974519014 16 0.13709357380867 0.268187910318375 -0.12187310308218 0.324919164180756
0.0265500002279878 0.0460499966666102 0.00564999974519014 16 0.042193591594696 0.324854463338852 0.0340364277362823 0.329346626996994
0.029350000269711 0.0460499966666102 0.00564999974519014 16 -0.0526168309152126 0.336594015359879 0.175711512565613 0.383325695991516
0.0321500003114343 0.0460499966666102 0.00564999974519014 16 -0.121054582297802 0.320158541202545 0.268989592790604 0.435328722000122
0.0349500003531575 0.0460499966666102 0.00564999974519014 16 -0.150910675525665 0.309090197086334 0.308609187602997 0.462115168571472
-0.0350500006899238 0.043249996624887 0.00564999974519014 16 0.194524765014648 0.0584057196974754 -0.183549851179123 0.273754745721817
-0.0322500006482005 0.043249996624887 0.00564999974519014 16 0.189100742340088 0.0897155553102493 -0.171235874295235 0.270425021648407
-0.0294500006064773 0.043249996624887 0.00564999974519014 16 0.172518566250801 0.151565566658974 -0.138634651899338 0.268243074417114
-0.026650000564754 0.043249996624887 0.00564999974519014 16 0.140701934695244 0.211917817592621 -0.0956077948212624 0.271748125553131
-0.0238500005230308 0.043249996624887 0.00564999974519014 16 0.0933772251009941 0.246099308133125 -0.0376853533089161 0.265902906656265
-0.0210500004813075 0.043249996624887 0.00564999974519014 16 0.0357960797846317 0.246451586484909 0.0232287310063839 0.250118613243103
-0.0182500004395843 0.043249996624887 0.00564999974519014 16 -0.0232627503573895 0.215352267026901 0.0903665497899055 0.23469951748848
-0.015450000397861 0.043249996624887 0.00564999974519014 16 -0.0734958201646805 0.163919389247894 0.145993292331696 0.231484860181808
-0.0126500003561378 0.043249996624887 0.00564999974519014 16 -0.108953662216663 0.100036814808846 0.191683754324913 0.242117583751678
-0.0098500003144145 0.043249996624887 0.00564999974519014 16 -0.127880349755287 0.0336099304258823 0.216369777917862 0.253572255373001
-0.00705000027269125 0.043249996624887 0.00564999974519014 16 -0.132476210594177 -0.032636497169733 0.224118530750275 0.262381792068481
-0.004250000230968 0.043249996624887 0.00564999974519014 16 -0.122704073786736 -0.0941937193274498 0.207302987575531 0.258656680583954
-0.00145000018924474 0.043249996624887 0.00564999974519014 16 -0.0980550795793533 -0.148862600326538 0.166268214583397 0.243762150406837
0.0013499998524785 0.043249996624887 0.00564999974519014 16 -0.0552011989057064 -0.192902818322182 0.0977041497826576 0.223169818520546
0.00414999989420176 0.043249996624887 0.00564999974519014 16 0.000176223024027422 -0.22298227250576 0.0113175874575973 0.223269373178482
0.006949999935925 0.043249996624887 0.00564999974519014 16 0.0639009103178978 -0.23480299115181 -0.0883134678006172 0.258872628211975
0.00974999997764826 0.043249996624887 0.00564999974519014 16 0.126360192894936 -0.22096860408783 -0.189367309212685 0.317260146141052
0.0125500000193715 0.043249996624887 0.00564999974519014 16 0.182537838816643 -0.176008731126785 -0.281149119138718 0.378607928752899
0.0153500000610948 0.043249996624887 0.00564999974519014 16 0.222329989075661 -0.0996430814266205 -0.339526891708374 0.41789698600769
0.018150000102818 0.043249996624887 0.00564999974519014 16 0.232523083686829 -0.00143836403731257 -0.339465469121933 0.41146793961525
0.0209500001445413 0.043249996624887 0.00564999974519014 16 0.205635398626328 0.0994528383016586 -0.273360431194305 0.356234043836594
0.0237500001862645 0.043249996624887 0.00564999974519014 16 0.139253988862038 0.184871226549149 -0.150169342756271 0.275898307561874
0.0265500002279878 0.043249996624887 0.00564999974519014 16 0.0510264672338963 0.237887755036354 -0.00549588771536946 0.243360817432404
0.029350000269711 0.043249996624887 0.00564999974519014 16 -0.0411561354994774 0.260390043258667 0.131023794412613 0.294387549161911
0.0321500003114343 0.043249996624887 0.00564999974519014 16 -0.10996088385582 0.259977549314499 0.226540267467499 0.361939519643784
0.0349500003531575 0.043249996624887 0.00564999974519014 16 -0.140799269080162 0.256913661956787 0.267245233058929 0.396546453237534
-0.0350500006899238 0.0404499965831637 0.00564999974519014 16 0.132993519306183 0.0617775321006775 -0.14568567276001 0.206707641482353
-0.0322500006482005 0.0404499965831637 0.00564999974519014 16 0.131023660302162 0.0822275504469872 -0.132963821291924 0.203980252146721
-0.0294500006064773 0.0404499965831637 0.00564999974519014 16 0.123287752270699 0.123069010674953 -0.102352403104305 0.20204421877861
-0.026650000564754 0.0404499965831637 0.00564999974519014 16 0.105643779039383 0.16398411989212 -0.0661176443099976 0.205968305468559
-0.0238500005230308 0.0404499965831637 0.00564999974519014 16 0.0748277828097343 0.187518328428268 -0.0204432122409344 0.20292916893959
-0.0210500004813075 0.0404499965831637 0.00564999974519014 16 0.0338600277900696 0.187534153461456 0.026981832459569 0.192467078566551
-0.0182500004395843 0.0404499965831637 0.00564999974519014 16 -0.0103828152641654 0.163369372487068 0.0815584063529968 0.182891026139259
-0.015450000397861 0.0404499965831637 0.00564999974519014 16 -0.050138633698225 0.122764185070992 0.129628047347069 0.185440972447395
-0.0126500003561378 0.0404499965831637 0.00564999974519014 16 -0.0773793160915375 0.0706409513950348 0.167316034436226 0.197414174675941
-0.0098500003144145 0.0404499965831637 0.00564999974519014 16 -0.0915018618106842 0.0158853456377983 0.185432150959969 0.207388564944267
-0.00705000027269125 0.0404499965831637 0.00564999974519014 16 -0.0914749428629875 -0.0388386286795139 0.183804079890251 0.208949863910675
-0.004250000230968 0.0404499965831637 0.00564999974519014 16 -0.0797655135393143 -0.0882127806544304 0.161427959799767 0.200506910681725
-0.00145000018924474 0.0404499965831637 0.00564999974519014 16 -0.0568190366029739 -0.130198195576668 0.119439125061035 0.185595482587814
0.0013499998524785 0.0404499965831637 0.00564999974519014 16 -0.022383214905858 -0.161520898342133 0.0590455532073975 0.173425450921059
0.00414999989420176 0.0404499965831637 0.00564999974519014 16 0.0178624279797077 -0.179888874292374 -0.0112515930086374 0.181123360991478
0.006949999935925 0.0404499965831637 0.00564999974519014 16 0.0624999739229679 -0.184331297874451 -0.0896306708455086 0.214284688234329
0.00974999997764826 0.0404499965831637 0.00564999974519014 16 0.105432577431202 -0.171556815505028 -0.167502507567406 0.261925280094147
0.0125500000193715 0.0404499965831637 0.00564999974519014 16 0.145643845200539 -0.139782637357712 -0.239608123898506 0.313310325145721
0.0153500000610948 0.0404499965831637 0.00564999974519014 16 0.175789549946785 -0.0879923179745674 -0.286255419254303 0.347256064414978
0.018150000102818 0.0404499965831637 0.00564999974519014 16 0.185731694102287 -0.0210636667907238 -0.289032995700836 0.344209253787994
0.0209500001445413 0.0404499965831637 0.00564999974519014 16 0.16774970293045 0.0500905886292458 -0.239563450217247 0.296714812517166
0.0237500001862645 0.0404499965831637 0.00564999974519014 16 0.117442063987255 0.1145209223032 -0.143854573369026 0.218178406357765
0.0265500002279878 0.0404499965831637 0.00564999974519014 16 0.0467273890972137 0.161105945706367 -0.0258351340889931 0.169723391532898
0.029350000269711 0.0404499965831637 0.00564999974519014 16 -0.0297565925866365 0.189037576317787 0.0879678949713707 0.210615783929825
0.0321500003114343 0.0404499965831637 0.00564999974519014 16 -0.0882281437516212 0.199930861592293 0.171423479914665 0.277745515108109
0.0349500003531575 0.0404499965831637 0.00564999974519014 16 -0.114846378564835 0.203232392668724 0.206580922007561 0.311719059944153
-0.0350500006899238 0.0376499965414405 0.00564999974519014 16 0.0750749185681343 0.0667134970426559 -0.108442902565002 0.147806614637375
-0.0322500006482005 0.0376499965414405 0.00564999974519014 16 0.0747919157147408 0.0812165513634682 -0.0955530032515526 0.146014854311943
-0.0294500006064773 0.0376499965414405 0.00564999974519014 16 0.0716347545385361 0.10978925973177 -0.066279798746109 0.146895304322243
-0.026650000564754 0.0376499965414405 0.00564999974519014 16 0.0630471184849739 0.138399004936218 -0.0350446477532387 0.156068414449692
-0.0238500005230308 0.0376499965414405 0.00564999974519014 16 0.0448584519326687 0.153203710913658 0.00043417137931101 0.159636601805687
-0.0210500004813075 0.0376499965414405 0.00564999974519014 16 0.0186691265553236 0.14998921751976 0.0352115519344807 0.15519392490387
-0.0182500004395843 0.0376499965414405 0.00564999974519014 16 -0.01066586188972 0.127257227897644 0.0753628984093666 0.14828260242939
-0.015450000397861 0.0376499965414405 0.00564999974519014 16 -0.037422139197588 0.0916352048516273 0.111655525863171 0.149212539196014
-0.0126500003561378 0.0376499965414405 0.00564999974519014 16 -0.0536278523504734 0.0464158616960049 0.13830104470253 0.155427023768425
-0.0098500003144145 0.0376499965414405 0.00564999974519014 16 -0.0600608214735985 -0.000349433918017894 0.149269253015518 0.160899758338928
-0.00705000027269125 0.0376499965414405 0.00564999974519014 16 -0.0544144585728645 -0.0457037128508091 0.140894383192062 0.157800480723381
-0.004250000230968 0.0376499965414405 0.00564999974519014 16 -0.0407037958502769 -0.0847800672054291 0.115694433450699 0.149096146225929