TITLE="DynamicStudio Exported Data"
VARIABLES= "X (m)[m]" "Y (m)[m]" "Z (m)[m]" "Status[-]" "U[-]" "V[-]" "W[-]" "Length[-]"
ZONE T="DynamicStudio Data" F=POINT
-0.0350500006899238 0.0600499968752265 0.00564999974519014 16 0.265814274549484 0.16981352865696 -0.364650398492813 0.482144981622696
-0.0322500006482005 0.0600499968752265 0.00564999974519014 16 0.263982564210892 0.139238953590393 -0.364467799663544 0.471074342727661
-0.0294500006064773 0.0600499968752265 0.00564999974519014 16 0.259931832551956 0.0738265886902809 -0.358487367630005 0.44891881942749
-0.026650000564754 0.0600499968752265 0.00564999974519014 16 0.247762396931648 -8.58621642692015e-05 -0.351904928684235 0.430375754833221
-0.0238500005230308 0.0600499968752265 0.00564999974519014 16 0.231403380632401 -0.067059151828289 -0.340714126825333 0.417289555072784
-0.0210500004813075 0.0600499968752265 0.00564999974519014 16 0.205178156495094 -0.123184889554977 -0.318698018789291 0.398548632860184
-0.0182500004395843 0.0600499968752265 0.00564999974519014 16 0.168330818414688 -0.178698733448982 -0.278241574764252 0.371061831712723
-0.015450000397861 0.0600499968752265 0.00564999974519014 16 0.114795379340649 -0.234521508216858 -0.20451708137989 0.331670850515366
-0.0126500003561378 0.0600499968752265 0.00564999974519014 16 0.038907814770937 -0.282554239034653 -0.101132027804852 0.302619248628616
-0.0098500003144145 0.0600499968752265 0.00564999974519014 16 -0.0561907403171062 -0.297186374664307 0.0342596024274826 0.304386049509048
-0.00705000027269125 0.0600499968752265 0.00564999974519014 16 -0.163119703531265 -0.260140031576157 0.174184769392014 0.353017300367355
-0.004250000230968 0.0600499968752265 0.00564999974519014 16 -0.258792579174042 -0.163365453481674 0.301216840744019 0.429410576820374
-0.00145000018924474 0.0600499968752265 0.00564999974519014 16 -0.321632087230682 -0.0259970612823963 0.382134199142456 0.500149607658386
0.0013499998524785 0.0600499968752265 0.00564999974519014 16 -0.328410744667053 0.123487405478954 0.39976754784584 0.531899273395538
0.00414999989420176 0.0600499968752265 0.00564999974519014 16 -0.27278545498848 0.24810017645359 0.342675656080246 0.50338077545166
0.006949999935925 0.0600499968752265 0.00564999974519014 16 -0.167741343379021 0.326469749212265 0.224298164248466 0.430150359869003
0.00974999997764826 0.0600499968752265 0.00564999974519014 16 -0.0413521490991116 0.347328662872314 0.075979620218277 0.357938677072525
0.0125500000193715 0.0600499968752265 0.00564999974519014 16 0.071021556854248 0.317716926336288 -0.056614775210619 0.330444157123566
0.0153500000610948 0.0600499968752265 0.00564999974519014 16 0.151999175548553 0.249143898487091 -0.142735511064529 0.324884384870529
0.018150000102818 0.0600499968752265 0.00564999974519014 16 0.194038450717926 0.157122597098351 -0.170250073075294 0.302197813987732
0.0209500001445413 0.0600499968752265 0.00564999974519014 16 0.206368744373322 0.0599506832659245 -0.154802888631821 0.264851033687592
0.0237500001862645 0.0600499968752265 0.00564999974519014 16 0.197054877877235 -0.0287346020340919 -0.119505740702152 0.232245400547981
0.0265500002279878 0.0600499968752265 0.00564999974519014 16 0.175598621368408 -0.100429885089397 -0.0856067463755608 0.219657808542252
0.029350000269711 0.0600499968752265 0.00564999974519014 16 0.150374308228493 -0.153946280479431 -0.0635239258408546 0.224381774663925
0.0321500003114343 0.0600499968752265 0.00564999974519014 16 0.128982171416283 -0.190975353121758 -0.0527769960463047 0.236417844891548
0.0349500003531575 0.0600499968752265 0.00564999974519014 16 0.118842259049416 -0.20569284260273 -0.0479223877191544 0.242341876029968
-0.0350500006899238 0.0572499968335032 0.00564999974519014 16 0.225476548075676 0.173560217022896 -0.330749005079269 0.436300039291382
-0.0322500006482005 0.0572499968335032 0.00564999974519014 16 0.2234797924757 0.141394630074501 -0.330586284399033 0.423347294330597
-0.0294500006064773 0.0572499968335032 0.00564999974519014 16 0.219281002879143 0.0728802904486656 -0.326941907405853 0.400358229875565
-0.026650000564754 0.0572499968335032 0.00564999974519014 16 0.208605796098709 -0.00412702886387706 -0.320666193962097 0.382570534944534
-0.0238500005230308 0.0572499968335032 0.00564999974519014 16 0.194282054901123 -0.0735167115926743 -0.30927699804306 0.372562050819397
-0.0210500004813075 0.0572499968335032 0.00564999974519014 16 0.171796038746834 -0.131676629185677 -0.28821936249733 0.360448360443115
-0.0182500004395843 0.0572499968335032 0.00564999974519014 16 0.14127442240715 -0.189638882875443 -0.25283744931221 0.346190899610519
-0.015450000397861 0.0572499968335032 0.00564999974519014 16 0.0980881378054619 -0.249531283974648 -0.190969735383987 0.329175621271133
-0.0126500003561378 0.0572499968335032 0.00564999974519014 16 0.0380892790853977 -0.302609503269196 -0.103554472327232 0.322097539901733
-0.0098500003144145 0.0572499968335032 0.00564999974519014 16 -0.0392908602952957 -0.320965707302094 0.0134712364524603 0.323642134666443
-0.00705000027269125 0.0572499968335032 0.00564999974519014 16 -0.129558324813843 -0.284609138965607 0.138798847794533 0.342129856348038
-0.004250000230968 0.0572499968335032 0.00564999974519014 16 -0.215007290244102 -0.182676553726196 0.255799263715744 0.380830824375153
-0.00145000018924474 0.0572499968335032 0.00564999974519014 16 -0.2751844227314 -0.0361424833536148 0.334443747997284 0.434609442949295
0.0013499998524785 0.0572499968335032 0.00564999974519014 16 -0.287067055702209 0.125835910439491 0.356067836284637 0.474369555711746
0.00414999989420176 0.0572499968335032 0.00564999974519014 16 -0.243494629859924 0.261719673871994 0.311379253864288 0.474071562290192
0.006949999935925 0.0572499968335032 0.00564999974519014 16 -0.15415246784687 0.348412901163101 0.209419801831245 0.43475416302681
0.00974999997764826 0.0572499968335032 0.00564999974519014 16 -0.0464454367756844 0.37250742316246 0.0799311622977257 0.383807182312012
0.0125500000193715 0.0572499968335032 0.00564999974519014 16 0.0503094270825386 0.341063559055328 -0.0380223616957664 0.346844464540482
0.0153500000610948 0.0572499968335032 0.00564999974519014 16 0.11824556440115 0.265985906124115 -0.113341234624386 0.312372773885727
0.018150000102818 0.0572499968335032 0.00564999974519014 16 0.154048442840576 0.165678590536118 -0.135011658072472 0.263454854488373
0.0209500001445413 0.0572499968335032 0.00564999974519014 16 0.164057031273842 0.0606099218130112 -0.117345690727234 0.210614055395126
0.0237500001862645 0.0572499968335032 0.00564999974519014 16 0.156603336334229 -0.0321084521710873 -0.0812444537878036 0.179321557283401
0.0265500002279878 0.0572499968335032 0.00564999974519014 16 0.138773515820503 -0.104618474841118 -0.0474685244262218 0.180156528949738
0.029350000269711 0.0572499968335032 0.00564999974519014 16 0.118029423058033 -0.156588241457939 -0.0237976275384426 0.197527587413788
0.0321500003114343 0.0572499968335032 0.00564999974519014 16 0.100596144795418 -0.191987082362175 -0.0127860531210899 0.217122331261635
0.0349500003531575 0.0572499968335032 0.00564999974519014 16 0.0924414247274399 -0.205921292304993 -0.00854030065238476 0.225880354642868
-0.0350500006899238 0.05444999679178 0.00564999974519014 16 0.127762109041214 0.177779421210289 -0.230073526501656 0.317588567733765
-0.0322500006482005 0.05444999679178 0.00564999974519014 16 0.125587657094002 0.143335238099098 -0.232162937521935 0.30036124587059
-0.0294500006064773 0.05444999679178 0.00564999974519014 16 0.121041491627693 0.0698166638612747 -0.233040228486061 0.271722555160522
-0.026650000564754 0.05444999679178 0.00564999974519014 16 0.113306060433388 -0.0121792750433087 -0.230150029063225 0.256818294525146
-0.0238500005230308 0.05444999679178 0.00564999974519014 16 0.104016214609146 -0.0860432982444763 -0.222921788692474 0.260608792304993
-0.0210500004813075 0.05444999679178 0.00564999974519014 16 0.090717688202858 -0.148412719368935 -0.209236681461334 0.272095620632172
-0.0182500004395843 0.05444999679178 0.00564999974519014 16 0.0745650678873062 -0.210946813225746 -0.188584372401237 0.292613357305527
-0.015450000397861 0.05444999679178 0.00564999974519014 16 0.0546750500798225 -0.27566921710968 -0.153087347745895 0.320029079914093
-0.0126500003561378 0.05444999679178 0.00564999974519014 16 0.0290183313190937 -0.334087520837784 -0.102988168597221 0.350803524255753
-0.0098500003144145 0.05444999679178 0.00564999974519014 16 -0.00739294104278088 -0.355372786521912 -0.0294651798903942 0.35666885972023
-0.00705000027269125 0.05444999679178 0.00564999974519014 16 -0.0578721091151237 -0.319384217262268 0.0570889078080654 0.329567283391953
-0.004250000230968 0.05444999679178 0.00564999974519014 16 -0.116162054240704 -0.209743544459343 0.147446691989899 0.281472027301788
-0.00145000018924474 0.05444999679178 0.00564999974519014 16 -0.167451232671738 -0.0505828969180584 0.21762652695179 0.279212921857834
0.0013499998524785 0.05444999679178 0.00564999974519014 16 -0.189934149384499 0.130093947052956 0.248228773474693 0.338551223278046
0.00414999989420176 0.05444999679178 0.00564999974519014 16 -0.174176409840584 0.283549755811691 0.23209273815155 0.405715346336365
0.006949999935925 0.05444999679178 0.00564999974519014 16 -0.121990971267223 0.384196162223816 0.169848099350929 0.437420696020126
0.00974999997764826 0.05444999679178 0.00564999974519014 16 -0.0571616403758526 0.414058834314346 0.0871942341327667 0.426983624696732
0.0125500000193715 0.05444999679178 0.00564999974519014 16 0.00276570022106171 0.380199939012527 0.00861528608947992 0.380307585000992
0.0153500000610948 0.05444999679178 0.00564999974519014 16 0.0412198565900326 0.295461982488632 -0.037768367677927 0.300704687833786
0.018150000102818 0.05444999679178 0.00564999974519014 16 0.062466736882925 0.183053657412529 -0.046255461871624 0.198872581124306
0.0209500001445413 0.05444999679178 0.00564999974519014 16 0.0680706650018692 0.0666948556900024 -0.0262685026973486 0.0988526865839958
0.0237500001862645 0.05444999679178 0.00564999974519014 16 0.0655003786087036 -0.0322125479578972 0.00744449999183416 0.0733714401721954
0.0265500002279878 0.05444999679178 0.00564999974519014 16 0.0562868341803551 -0.107572756707668 0.0379596427083015 0.127204716205597
0.029350000269711 0.05444999679178 0.00564999974519014 16 0.0454026833176613 -0.159373968839645 0.0622872449457645 0.177034363150597
0.0321500003114343 0.05444999679178 0.00564999974519014 16 0.0362322255969048 -0.195102706551552 0.0745026096701622 0.211963385343552
0.0349500003531575 0.05444999679178 0.00564999974519014 16 0.031989112496376 -0.209133937954903 0.0804104954004288 0.22633196413517
-0.0350500006899238 0.0516499967500567 0.00564999974519014 16 0.00578435463830829 0.175794675946236 -0.0895971134305 0.197395205497742
-0.0322500006482005 0.0516499967500567 0.00564999974519014 16 0.00267668883316219 0.140876397490501 -0.0929134413599968 0.168778643012047
-0.0294500006064773 0.0516499967500567 0.00564999974519014 16 -0.00265442882664502 0.0659538209438324 -0.099316343665123 0.119250528514385
-0.026650000564754 0.0516499967500567 0.00564999974519014 16 -0.00668830098584294 -0.0181645192205906 -0.103394486010075 0.105190791189671
-0.0238500005230308 0.0516499967500567 0.00564999974519014 16 -0.00928778201341629 -0.0945080742239952 -0.104303933680058 0.141057968139648
-0.0210500004813075 0.0516499967500567 0.00564999974519014 16 -0.00976987648755312 -0.159179463982582 -0.102908357977867 0.189799055457115
-0.0182500004395843 0.0516499967500567 0.00564999974519014 16 -0.00745067745447159 -0.222972586750984 -0.102765046060085 0.245627656579018
-0.015450000397861 0.0516499967500567 0.00564999974519014 16 0.0017302434425801 -0.286736667156219 -0.101844191551208 0.304291218519211
-0.0126500003561378 0.0516499967500567 0.00564999974519014 16 0.0165223274379969 -0.343010485172272 -0.0987056568264961 0.357312172651291
-0.0098500003144145 0.0516499967500567 0.00564999974519014 16 0.0288512781262398 -0.361349672079086 -0.0795581638813019 0.371127307415009
-0.00705000027269125 0.0516499967500567 0.00564999974519014 16 0.0270762406289577 -0.325211703777313 -0.0439441241323948 0.329282343387604
-0.004250000230968 0.0516499967500567 0.00564999974519014 16 0.00558097846806049 -0.215885251760483 0.00858845002949238 0.216128081083298
-0.00145000018924474 0.0516499967500567 0.00564999974519014 16 -0.0287305396050215 -0.0571501143276691 0.061617162078619 0.0888158455491066
0.0013499998524785 0.0516499967500567 0.00564999974519014 16 -0.0588718466460705 0.127023532986641 0.099771536886692 0.171916350722313
0.00414999989420176 0.0516499967500567 0.00564999974519014 16 -0.0738551914691925 0.286415308713913 0.117715790867805 0.318347811698914
0.006949999935925 0.0516499967500567 0.00564999974519014 16 -0.0680784434080124 0.393542617559433 0.10816752165556 0.413776129484177
0.00974999997764826 0.0516499967500567 0.00564999974519014 16 -0.0570533536374569 0.427294880151749 0.0878193005919456 0.439941167831421
0.0125500000193715 0.0516499967500567 0.00564999974519014 16 -0.045083325356245 0.393534749746323 0.0627066195011139 0.40104141831398
0.0153500000610948 0.0516499967500567 0.00564999974519014 16 -0.0441114641726017 0.305898725986481 0.0558689832687378 0.314071983098984
0.018150000102818 0.0516499967500567 0.00564999974519014 16 -0.0435191281139851 0.189884081482887 0.0657780319452286 0.205612808465958
0.0209500001445413 0.0516499967500567 0.00564999974519014 16 -0.0454344786703587 0.0702335759997368 0.0893270745873451 0.122377991676331
0.0237500001862645 0.0516499967500567 0.00564999974519014 16 -0.0439609512686729 -0.0301239956170321 0.11709801107645 0.128654435276985
0.0265500002279878 0.0516499967500567 0.00564999974519014 16 -0.0430369600653648 -0.106576032936573 0.139867424964905 0.181034609675407
0.029350000269711 0.0516499967500567 0.00564999974519014 16 -0.0413881912827492 -0.158439323306084 0.159126505255699 0.228335827589035
0.0321500003114343 0.0516499967500567 0.00564999974519014 16 -0.0397015064954758 -0.194282218813896 0.167534008622169 0.259594768285751
0.0349500003531575 0.0516499967500567 0.00564999974519014 16 -0.0385368689894676 -0.207757323980331 0.171342894434929 0.272041529417038
-0.0350500006899238 0.0488499967083335 0.00564999974519014 16 -0.0946214720606804 0.163078308105469 0.0549139119684696 0.196375384926796
-0.0322500006482005 0.0488499967083335 0.00564999974519014 16 -0.0996740907430649 0.129427254199982 0.0517893843352795 0.171372339129448
-0.0294500006064773 0.0488499967083335 0.00564999974519014 16 -0.108328796923161 0.0579434260725975 0.0434089936316013 0.130295470356941
-0.026650000564754 0.0488499967083335 0.00564999974519014 16 -0.111801467835903 -0.0229585785418749 0.0329872481524944 0.118805818259716
-0.0238500005230308 0.0488499967083335 0.00564999974519014 16 -0.109862498939037 -0.096909686923027 0.0205866675823927 0.147936031222343
-0.0210500004813075 0.0488499967083335 0.00564999974519014 16 -0.0987979620695114 -0.159944415092468 0.004011704120785 0.188040807843208
-0.0182500004395843 0.0488499967083335 0.00564999974519014 16 -0.0796982496976852 -0.219419658184052 -0.0195298753678799 0.234260991215706
-0.015450000397861 0.0488499967083335 0.00564999974519014 16 -0.0466283112764359 -0.273700594902039 -0.0512151978909969 0.282328218221664
-0.0126500003561378 0.0488499967083335 0.00564999974519014 16 -0.000722206721547991 -0.316632330417633 -0.088838592171669 0.328859925270081
-0.0098500003144145 0.0488499967083335 0.00564999974519014 16 0.0493607930839062 -0.324725598096848 -0.117043778300285 0.348686754703522
-0.00705000027269125 0.0488499967083335 0.00564999974519014 16 0.0877656489610672 -0.286946713924408 -0.128038927912712 0.326244086027145
-0.004250000230968 0.0488499967083335 0.00564999974519014 16 0.0994133651256561 -0.188739627599716 -0.111520797014236 0.240712583065033
-0.00145000018924474 0.0488499967083335 0.00564999974519014 16 0.0838210433721542 -0.047725073993206 -0.0771921202540398 0.123540572822094
0.0013499998524785 0.0488499967083335 0.00564999974519014 16 0.0510004200041294 0.116981714963913 -0.0337561704218388 0.132004708051682
0.00414999989420176 0.0488499967083335 0.00564999974519014 16 0.0137468418106437 0.263285726308823 0.0118955355137587 0.263912588357925
0.006949999935925 0.0488499967083335 0.00564999974519014 16 -0.0181974619626999 0.363637685775757 0.0486162677407265 0.367324203252792
0.00974999997764826 0.0488499967083335 0.00564999974519014 16 -0.0503058210015297 0.397516578435898 0.0836923718452454 0.409334242343903
0.0125500000193715 0.0488499967083335 0.00564999974519014 16 -0.0791839584708214 0.368513703346252 0.110319696366787 0.392737656831741
0.0153500000610948 0.0488499967083335 0.00564999974519014 16 -0.109459951519966 0.290274977684021 0.142268136143684 0.341293513774872
0.018150000102818 0.0488499967083335 0.00564999974519014 16 -0.12788599729538 0.185797825455666 0.169829621911049 0.282343327999115
0.0209500001445413 0.0488499967083335 0.00564999974519014 16 -0.136355042457581 0.0767745152115822 0.194330662488937 0.249502375721931
0.0237500001862645 0.0488499967083335 0.00564999974519014 16 -0.131407678127289 -0.0180150549858809 0.211008340120316 0.249232903122902
0.0265500002279878 0.0488499967083335 0.00564999974519014 16 -0.121172450482845 -0.0939737632870674 0.220128685235977 0.268273115158081
0.029350000269711 0.0488499967083335 0.00564999974519014 16 -0.108748778700829 -0.14894562959671 0.228263780474663 0.293454349040985
0.0321500003114343 0.0488499967083335 0.00564999974519014 16 -0.0982477366924286 -0.187778308987617 0.230212450027466 0.312907457351685
0.0349500003531575 0.0488499967083335 0.00564999974519014 16 -0.0932132825255394 -0.203110307455063 0.232273399829865 0.322325050830841
-0.0350500006899238 0.0460499966666102 0.00564999974519014 16 -0.135297030210495 0.137665286660194 0.140845566987991 0.238944530487061
-0.0322500006482005 0.0460499966666102 0.00564999974519014 16 -0.142191201448441 0.108070574700832 0.139936372637749 0.226891547441483
-0.0294500006064773 0.0460499966666102 0.00564999974519014 16 -0.154853686690331 0.0455653816461563 0.1337670981884 0.209641382098198
-0.026650000564754 0.0460499966666102 0.00564999974519014 16 -0.16065987944603 -0.0264745056629181 0.121086210012436 0.20291468501091
-0.0238500005230308 0.0460499966666102 0.00564999974519014 16 -0.157497107982635 -0.0925119966268539 0.101027891039848 0.208735346794128
-0.0210500004813075 0.0460499966666102 0.00564999974519014 16 -0.140350952744484 -0.148289978504181 0.0712041035294533 0.216236755251884
-0.0182500004395843 0.0460499966666102 0.00564999974519014 16 -0.111395642161369 -0.197027161717415 0.0303381141275167 0.228361755609512
-0.015450000397861 0.0460499966666102 0.00564999974519014 16 -0.0665633603930473 -0.236655458807945 -0.0224343184381723 0.246859848499298
-0.0126500003561378 0.0460499966666102 0.00564999974519014 16 -0.00773723144084215 -0.261880785226822 -0.0830130651593208 0.274831920862198
-0.0098500003144145 0.0460499966666102 0.00564999974519014 16 0.0561495386064053 -0.2593774497509 -0.13513845205307 0.29781174659729
-0.00705000027269125 0.0460499966666102 0.00564999974519014 16 0.110781267285347 -0.22201980650425 -0.169935047626495 0.300737768411636
-0.004250000230968 0.0460499966666102 0.00564999974519014 16 0.138624787330627 -0.143416792154312 -0.173286557197571 0.264222323894501
-0.00145000018924474 0.0460499966666102 0.00564999974519014 16 0.136135458946228 -0.0318492017686367 -0.152248963713646 0.206705063581467
0.0013499998524785 0.0460499966666102 0.00564999974519014 16 0.106380693614483 0.0976940765976906 -0.10840754956007 0.180591195821762
0.00414999989420176 0.0460499966666102 0.00564999974519014 16 0.0618253760039806 0.216569557785988 -0.0503025501966476 0.230770662426949
0.006949999935925 0.0460499966666102 0.00564999974519014 16 0.0120164752006531 0.299889147281647 0.0120672285556793 0.300372302532196
0.00974999997764826 0.0460499966666102 0.00564999974519014 16 -0.0406481027603149 0.331145584583282 0.0773891732096672 0.342489063739777
0.0125500000193715 0.0460499966666102 0.00564999974519014 16 -0.0904585346579552 0.311292856931686 0.134127020835876 0.350821971893311
0.0153500000610948 0.0460499966666102 0.00564999974519014 16 -0.135849311947823 0.251893401145935 0.18767161667347 0.342236697673798
0.018150000102818 0.0460499966666102 0.00564999974519014 16 -0.164548441767693 0.169184476137161 0.225411415100098 0.326358526945114
0.0209500001445413 0.0460499966666102 0.00564999974519014 16 -0.176544383168221 0.0797412693500519 0.249721482396126 0.316049695014954
0.0237500001862645 0.0460499966666102 0.00564999974519014 16 -0.170136451721191 -0.00384235149249434 0.257743507623672 0.308857381343842
0.0265500002279878 0.0460499966666102 0.00564999974519014 16 -0.154220193624496 -0.0753765478730202 0.255092442035675 0.307469755411148
0.029350000269711 0.0460499966666102 0.00564999974519014 16 -0.134117767214775 -0.130948200821877 0.249592959880829 0.312140434980392
0.0321500003114343 0.0460499966666102 0.00564999974519014 16 -0.116689451038837 -0.17002971470356 0.240425139665604 0.316750347614288
0.0349500003531575 0.0460499966666102 0.00564999974519014 16 -0.108305342495441 -0.185624107718468 0.237140119075775 0.320034056901932
-0.0350500006899238 0.043249996624887 0.00564999974519014 16 -0.118583396077156 0.103581845760345 0.160225078463554 0.224640369415283
-0.0322500006482005 0.043249996624887 0.00564999974519014 16 -0.127051055431366 0.0785958468914032 0.161798983812332 0.220223054289818
-0.0294500006064773 0.043249996624887 0.00564999974519014 16 -0.1435237377882 0.0269677881151438 0.161740601062775 0.217913627624512
-0.026650000564754 0.043249996624887 0.00564999974519014 16 -0.154000893235207 -0.0327466130256653 0.153302669525146 0.219750598073006
-0.0238500005230308 0.043249996624887 0.00564999974519014 16 -0.153439208865166 -0.0867798924446106 0.132097259163857 0.220281705260277
-0.0210500004813075 0.043249996624887 0.00564999974519014 16 -0.137046977877617 -0.132194653153419 0.0958817601203918 0.213191494345665
-0.0182500004395843 0.043249996624887 0.00564999974519014 16 -0.106884494423866 -0.168436139822006 0.0456938482820988 0.20465324819088
-0.015450000397861 0.043249996624887 0.00564999974519014 16 -0.0627550557255745 -0.194112956523895 -0.0142448274418712 0.2045017182827
-0.0126500003561378 0.043249996624887 0.00564999974519014 16 -0.0076637202873826 -0.204055368900299 -0.0788787007331848 0.218904495239258
-0.0098500003144145 0.043249996624887 0.00564999974519014 16 0.0495776124298573 -0.193951293826103 -0.132667124271393 0.240157470107079
-0.00705000027269125 0.043249996624887 0.00564999974519014 16 0.0985706001520157 -0.158794358372688 -0.169279828667641 0.252165555953979
-0.004250000230968 0.043249996624887 0.00564999974519014 16 0.124817281961441 -0.0987808108329773 -0.175897151231766 0.237227350473404
-0.00145000018924474 0.043249996624887 0.00564999974519014 16 0.125048443675041 -0.0157752260565758 -0.158520296216011 0.202520757913589
0.0013499998524785 0.043249996624887 0.00564999974519014 16 0.0998066067695618 0.0787040442228317 -0.116902276873589 0.172689974308014
0.00414999989420176 0.043249996624887 0.00564999974519014 16 0.0595308095216751 0.168004080653191 -0.0600135214626789 0.188071563839912
0.006949999935925 0.043249996624887 0.00564999974519014 16 0.0118654426187277 0.232587456703186 0.00494661275297403 0.232942447066307
0.00974999997764826 0.043249996624887 0.00564999974519014 16 -0.0391013883054256 0.260828644037247 0.0736754015088081 0.273840397596359
0.0125500000193715 0.043249996624887 0.00564999974519014 16 -0.0887683779001236 0.251295894384384 0.136896252632141 0.299616485834122
0.0153500000610948 0.043249996624887 0.00564999974519014 16 -0.133624076843262 0.21233569085598 0.194501504302025 0.317447125911713
0.018150000102818 0.043249996624887 0.00564999974519014 16 -0.162660107016563 0.152913421392441 0.23402538895607 0.323432683944702
0.0209500001445413 0.043249996624887 0.00564999974519014 16 -0.173825830221176 0.0843170061707497 0.256146758794785 0.320836305618286
0.0237500001862645 0.043249996624887 0.00564999974519014 16 -0.165670335292816 0.0139125101268291 0.257139712572098 0.306204259395599
0.0265500002279878 0.043249996624887 0.00564999974519014 16 -0.146609351038933 -0.051215261220932 0.245334938168526 0.290355890989304
0.029350000269711 0.043249996624887 0.00564999974519014 16 -0.123069785535336 -0.105147212743759 0.228634834289551 0.280135661363602
0.0321500003114343 0.043249996624887 0.00564999974519014 16 -0.103052325546741 -0.143692210316658 0.212419956922531 0.276386469602585
0.0349500003531575 0.043249996624887 0.00564999974519014 16 -0.0939547792077065 -0.159491002559662 0.206220954656601 0.277113616466522
-0.0350500006899238 0.0404499965831637 0.00564999974519014 16 -0.0774762034416199 0.0668055266141891 0.12973590195179 0.165217861533165
-0.0322500006482005 0.0404499965831637 0.00564999974519014 16 -0.0853121727705002 0.0472358278930187 0.133165568113327 0.165052905678749
-0.0294500006064773 0.0404499965831637 0.00564999974519014 16 -0.10104863345623 0.00713811349123716 0.137329950928688 0.170649617910385
-0.026650000564754 0.0404499965831637 0.00564999974519014 16 -0.112426415085793 -0.0395243987441063 0.132711544632912 0.178365439176559
-0.0238500005230308 0.0404499965831637 0.00564999974519014 16 -0.113513462245464 -0.0808780714869499 0.113562554121017 0.179786056280136
-0.0210500004813075 0.0404499965831637 0.00564999974519014 16 -0.100862398743629 -0.115060821175575 0.0792442858219147 0.172313302755356
-0.0182500004395843 0.0404499965831637 0.00564999974519014 16 -0.0754682645201683 -0.139412060379982 0.0316637940704823 0.161659449338913
-0.015450000397861 0.0404499965831637 0.00564999974519014 16 -0.0393577665090561 -0.15461365878582 -0.0219692755490541 0.161049887537956
-0.0126500003561378 0.0404499965831637 0.00564999974519014 16 0.00378316664136946 -0.155702605843544 -0.0768147110939026 0.173660919070244
-0.0098500003144145 0.0404499965831637 0.00564999974519014 16 0.0454608388245106 -0.142870843410492 -0.119336649775505 0.191624641418457
-0.00705000027269125 0.0404499965831637 0.00564999974519014 16 0.0781218558549881 -0.112484633922577 -0.145173907279968 0.199577748775482
-0.004250000230968 0.0404499965831637 0.00564999974519014 16 0.0931364968419075 -0.0669282823801041 -0.146841585636139 0.18632298707962
-0.00145000018924474 0.0404499965831637 0.00564999974519014 16 0.089142270386219 -0.00620142929255962 -0.129225760698318 0.157111749053001
0.0013499998524785 0.0404499965831637 0.00564999974519014 16 0.0677436143159866 0.0617613755166531 -0.0936445742845535 0.131045684218407
0.00414999989420176 0.0404499965831637 0.00564999974519014 16 0.0356467366218567 0.127331078052521 -0.0457651577889919 0.139922633767128
0.006949999935925 0.0404499965831637 0.00564999974519014 16 -0.00187875772826374 0.176907390356064 0.00958481058478355 0.17717681825161
0.00974999997764826 0.0404499965831637 0.00564999974519014 16 -0.042055394500494 0.203243032097816 0.0679597407579422 0.218391641974449
0.0125500000193715 0.0404499965831637 0.00564999974519014 16 -0.0816448330879211 0.202991306781769 0.122971437871456 0.250984698534012
0.0153500000610948 0.0404499965831637 0.00564999974519014 16 -0.117251567542553 0.180952444672585 0.172333270311356 0.276026219129562
0.018150000102818 0.0404499965831637 0.00564999974519014 16 -0.140390560030937 0.14002051949501 0.207708030939102 0.287154823541641
0.0209500001445413 0.0404499965831637 0.00564999974519014 16 -0.148371696472168 0.0880521386861801 0.228183701634407 0.28606840968132
0.0237500001862645 0.0404499965831637 0.00564999974519014 16 -0.139828979969025 0.0299354176968336 0.228505909442902 0.269561171531677
0.0265500002279878 0.0404499965831637 0.00564999974519014 16 -0.120486713945866 -0.0270524919033051 0.214784801006317 0.247752696275711
0.029350000269711 0.0404499965831637 0.00564999974519014 16 -0.0961664840579033 -0.0761964991688728 0.191584378480911 0.227504894137383
0.0321500003114343 0.0404499965831637 0.00564999974519014 16 -0.0747272744774818 -0.111858725547791 0.16968546807766 0.216540291905403
0.0349500003531575 0.0404499965831637 0.00564999974519014 16 -0.0647950693964958 -0.126640811562538 0.159235894680023 0.213523700833321
-0.0350500006899238 0.0376499965414405 0.00564999974519014 16 -0.0409109108150005 0.0352794863283634 0.0871452838182449 0.10253119468689
-0.0322500006482005 0.0376499965414405 0.00564999974519014 16 -0.0469686239957809 0.0205681677907705 0.0901703536510468 0.103729426860809
-0.0294500006064773 0.0376499965414405 0.00564999974519014 16 -0.0592605285346508 -0.00939678493887186 0.0948465764522552 0.112231828272343
-0.026650000564754 0.0376499965414405 0.00564999974519014 16 -0.0685465931892395 -0.0442584194242954 0.0927583798766136 0.123537681996822
-0.0238500005230308 0.0376499965414405 0.00564999974519014 16 -0.0700878202915192 -0.0751945674419403 0.0778821185231209 0.128965690732002
-0.0210500004813075 0.0376499965414405 0.00564999974519014 16 -0.061277162283659 -0.101294696331024 0.0495741367340088 0.12834757566452
-0.0182500004395843 0.0376499965414405 0.00564999974519014 16 -0.0419867821037769 -0.118854530155659 0.0100648188963532 0.126453906297684
-0.015450000397861 0.0376499965414405 0.00564999974519014 16 -0.0147631866857409 -0.128224298357964 -0.0328168012201786 0.133177936077118
-0.0126500003561378 0.0376499965414405 0.00564999974519014 16 0.0165912006050348 -0.124861069023609 -0.0740290582180023 0.146102219820023
-0.0098500003144145 0.0376499965414405 0.00564999974519014 16 0.0443664863705635 -0.11019004881382 -0.104301072657108 0.158078923821449
-0.00705000027269125 0.0376499965414405 0.00564999974519014 16 0.0624179095029831 -0.0829286873340607 -0.119528889656067 0.158304512500763