TITLE="DynamicStudio Exported Data"
VARIABLES= "X (m)[m]" "Y (m)[m]" "Z (m)[m]" "Status[-]" "U[-]" "V[-]" "W[-]" "Length[-]"
ZONE T="DynamicStudio Data" F=POINT
-0.0350500006899238 0.0600499968752265 0.00564999974519014 16 0.143497422337532 -0.194790676236153 -0.181503161787987 0.302453815937042
-0.0322500006482005 0.0600499968752265 0.00564999974519014 16 0.127068057656288 -0.219533577561378 -0.164330452680588 0.302234649658203
-0.0294500006064773 0.0600499968752265 0.00564999974519014 16 0.0754805356264114 -0.269755929708481 -0.111203923821449 0.301383286714554
-0.026650000564754 0.0600499968752265 0.00564999974519014 16 -0.00674787256866693 -0.316361039876938 -0.0192223135381937 0.317016303539276
-0.0238500005230308 0.0600499968752265 0.00564999974519014 16 -0.114325851202011 -0.325248211622238 0.0984895080327988 0.358548432588577
-0.0210500004813075 0.0600499968752265 0.00564999974519014 16 -0.219839036464691 -0.271772116422653 0.220826953649521 0.413465619087219
-0.0182500004395843 0.0600499968752265 0.00564999974519014 16 -0.299189299345016 -0.156415224075317 0.311764031648636 0.459539741277695
-0.015450000397861 0.0600499968752265 0.00564999974519014 16 -0.327604293823242 -0.00114221847616136 0.354830652475357 0.482939630746841
-0.0126500003561378 0.0600499968752265 0.00564999974519014 16 -0.297939330339432 0.15370337665081 0.337793380022049 0.47591695189476
-0.0098500003144145 0.0600499968752265 0.00564999974519014 16 -0.219311222434044 0.273135274648666 0.277103185653687 0.446639090776443
-0.00705000027269125 0.0600499968752265 0.00564999974519014 16 -0.108460202813148 0.337258249521255 0.184962943196297 0.399647384881973
-0.004250000230968 0.0600499968752265 0.00564999974519014 16 0.00675135431811213 0.339661151170731 0.0849431827664375 0.350186556577682
-0.00145000018924474 0.0600499968752265 0.00564999974519014 16 0.107721008360386 0.29159739613533 -0.0103074200451374 0.311029106378555
0.0013499998524785 0.0600499968752265 0.00564999974519014 16 0.173884660005569 0.205286517739296 -0.0840620473027229 0.281859636306763
0.00414999989420176 0.0600499968752265 0.00564999974519014 16 0.204009667038918 0.106892131268978 -0.131537616252899 0.265231996774673
0.006949999935925 0.0600499968752265 0.00564999974519014 16 0.203654333949089 0.0146200498566031 -0.152131274342537 0.254622787237167
0.00974999997764826 0.0600499968752265 0.00564999974519014 16 0.189432486891747 -0.0591494254767895 -0.158706709742546 0.254108518362045
0.0125500000193715 0.0600499968752265 0.00564999974519014 16 0.169131144881248 -0.119230054318905 -0.152033016085625 0.256778478622437
0.0153500000610948 0.0600499968752265 0.00564999974519014 16 0.144911080598831 -0.179884627461433 -0.136418163776398 0.268267810344696
0.018150000102818 0.0600499968752265 0.00564999974519014 16 0.105861984193325 -0.249466866254807 -0.0946818366646767 0.28706294298172
0.0209500001445413 0.0600499968752265 0.00564999974519014 16 0.0445462353527546 -0.32376503944397 -0.022421034052968 0.327583372592926
0.0237500001862645 0.0600499968752265 0.00564999974519014 16 -0.0456127561628819 -0.377304792404175 0.0916252806782722 0.390940696001053
0.0265500002279878 0.0600499968752265 0.00564999974519014 16 -0.153152912855148 -0.380043119192123 0.229446455836296 0.469610750675201
0.029350000269711 0.0600499968752265 0.00564999974519014 16 -0.259219765663147 -0.325658887624741 0.365776687860489 0.55411297082901
0.0321500003114343 0.0600499968752265 0.00564999974519014 16 -0.337152421474457 -0.246103733778 0.463950097560883 0.624090135097504
0.0349500003531575 0.0600499968752265 0.00564999974519014 16 -0.368888586759567 -0.202693477272987 0.503854513168335 0.656530916690826
-0.0350500006899238 0.0572499968335032 0.00564999974519014 16 0.113021686673164 -0.20443469285965 -0.144233673810959 0.274537414312363
-0.0322500006482005 0.0572499968335032 0.00564999974519014 16 0.0995549038052559 -0.231421709060669 -0.127569317817688 0.282384693622589
-0.0294500006064773 0.0572499968335032 0.00564999974519014 16 0.0588505081832409 -0.286626487970352 -0.0820071399211884 0.303880393505096
-0.026650000564754 0.0572499968335032 0.00564999974519014 16 -0.00680371699854732 -0.338629275560379 -0.00632490869611502 0.338756650686264
-0.0238500005230308 0.0572499968335032 0.00564999974519014 16 -0.0938694700598717 -0.351854026317596 0.0899002179503441 0.375093042850494
-0.0210500004813075 0.0572499968335032 0.00564999974519014 16 -0.179846167564392 -0.297068297863007 0.189117684960365 0.395423471927643
-0.0182500004395843 0.0572499968335032 0.00564999974519014 16 -0.246280759572983 -0.174770414829254 0.264926999807358 0.401727795600891
-0.015450000397861 0.0572499968335032 0.00564999974519014 16 -0.271328181028366 -0.00679508689790964 0.302373468875885 0.406318664550781
-0.0126500003561378 0.0572499968335032 0.00564999974519014 16 -0.249795958399773 0.161520168185234 0.291470915079117 0.416463792324066
-0.0098500003144145 0.0572499968335032 0.00564999974519014 16 -0.186691418290138 0.291682124137878 0.244044154882431 0.42366224527359
-0.00705000027269125 0.0572499968335032 0.00564999974519014 16 -0.0962921977043152 0.3597711622715 0.170165464282036 0.40946763753891
-0.004250000230968 0.0572499968335032 0.00564999974519014 16 -0.00021269875287544 0.36038726568222 0.088041864335537 0.370985716581345
-0.00145000018924474 0.0572499968335032 0.00564999974519014 16 0.085008479654789 0.305998116731644 0.00681288028135896 0.317659735679626
0.0013499998524785 0.0572499968335032 0.00564999974519014 16 0.141451299190521 0.212108477950096 -0.0588828548789024 0.261659443378448
0.00414999989420176 0.0572499968335032 0.00564999974519014 16 0.166678488254547 0.106133736670017 -0.101883195340633 0.222320213913918
0.006949999935925 0.0572499968335032 0.00564999974519014 16 0.165270060300827 0.00883636716753244 -0.120064698159695 0.204469576478004
0.00974999997764826 0.0572499968335032 0.00564999974519014 16 0.15160708129406 -0.0675927028059959 -0.123018644750118 0.206608489155769
0.0125500000193715 0.0572499968335032 0.00564999974519014 16 0.134217634797096 -0.127825886011124 -0.115820407867432 0.218559369444847
0.0153500000610948 0.0572499968335032 0.00564999974519014 16 0.114460609853268 -0.189209178090096 -0.101531833410263 0.243331164121628
0.018150000102818 0.0572499968335032 0.00564999974519014 16 0.0843759924173355 -0.261100113391876 -0.0694319158792496 0.283043056726456
0.0209500001445413 0.0572499968335032 0.00564999974519014 16 0.0355956368148327 -0.340246975421906 -0.0115111954510212 0.342297464609146
0.0237500001862645 0.0572499968335032 0.00564999974519014 16 -0.0369488336145878 -0.398842602968216 0.0813759490847588 0.408733010292053
0.0265500002279878 0.0572499968335032 0.00564999974519014 16 -0.124975323677063 -0.404337823390961 0.1978949457407 0.467194080352783
0.029350000269711 0.0572499968335032 0.00564999974519014 16 -0.211735472083092 -0.348658710718155 0.315062791109085 0.515421509742737
0.0321500003114343 0.0572499968335032 0.00564999974519014 16 -0.275666236877441 -0.265079528093338 0.401168167591095 0.554251730442047
0.0349500003531575 0.0572499968335032 0.00564999974519014 16 -0.302187651395798 -0.218261197209358 0.437191009521484 0.574535727500916
-0.0350500006899238 0.05444999679178 0.00564999974519014 16 0.0349055863916874 -0.225385829806328 -0.0370874628424644 0.231068506836891
-0.0322500006482005 0.05444999679178 0.00564999974519014 16 0.0307520721107721 -0.254786223173141 -0.0312395934015512 0.258529722690582
-0.0294500006064773 0.05444999679178 0.00564999974519014 16 0.0146548142656684 -0.316374272108078 -0.0116433445364237 0.316927462816238
-0.026650000564754 0.05444999679178 0.00564999974519014 16 -0.0116320345550776 -0.374553114175797 0.0207496508955956 0.375307738780975
-0.0238500005230308 0.05444999679178 0.00564999974519014 16 -0.0497622229158878 -0.391931444406509 0.0630801916122437 0.400082051753998
-0.0210500004813075 0.05444999679178 0.00564999974519014 16 -0.0876175165176392 -0.33308070898056 0.107563890516758 0.360817939043045
-0.0182500004395843 0.05444999679178 0.00564999974519014 16 -0.121081613004208 -0.199190318584442 0.145340338349342 0.274702280759811
-0.015450000397861 0.05444999679178 0.00564999974519014 16 -0.136911287903786 -0.0122015448287129 0.169275745749474 0.218054711818695
-0.0126500003561378 0.05444999679178 0.00564999974519014 16 -0.133408069610596 0.175389975309372 0.172475010156631 0.279833853244781
-0.0098500003144145 0.05444999679178 0.00564999974519014 16 -0.107292845845222 0.320958375930786 0.158243671059608 0.373586803674698
-0.00705000027269125 0.05444999679178 0.00564999974519014 16 -0.0641755387187004 0.394942551851273 0.127587899565697 0.419972360134125
-0.004250000230968 0.05444999679178 0.00564999974519014 16 -0.0136110540479422 0.392625004053116 0.0879420936107635 0.402583479881287
-0.00145000018924474 0.05444999679178 0.00564999974519014 16 0.034194078296423 0.328260034322739 0.0410043969750404 0.332573652267456
0.0013499998524785 0.05444999679178 0.00564999974519014 16 0.0663745105266571 0.22230663895607 -0.00245917704887688 0.232016950845718
0.00414999989420176 0.05444999679178 0.00564999974519014 16 0.079918697476387 0.104251578450203 -0.033612746745348 0.135592058300972
0.006949999935925 0.05444999679178 0.00564999974519014 16 0.076654739677906 -0.00176971044857055 -0.0459464378654957 0.0893876776099205
0.00974999997764826 0.05444999679178 0.00564999974519014 16 0.065819688141346 -0.0836818963289261 -0.0437560193240643 0.115106381475925
0.0125500000193715 0.05444999679178 0.00564999974519014 16 0.0551544949412346 -0.144816845655441 -0.036177534610033 0.159131228923798
0.0153500000610948 0.05444999679178 0.00564999974519014 16 0.0456587970256805 -0.207046180963516 -0.0280279479920864 0.213865414261818
0.018150000102818 0.05444999679178 0.00564999974519014 16 0.0344959795475006 -0.280522912740707 -0.0176549069583416 0.283186823129654
0.0209500001445413 0.05444999679178 0.00564999974519014 16 0.0141722317785025 -0.364733755588531 0.00600138446316123 0.365058332681656
0.0237500001862645 0.05444999679178 0.00564999974519014 16 -0.0180450063198805 -0.428441047668457 0.0515474118292332 0.431907951831818
0.0265500002279878 0.05444999679178 0.00564999974519014 16 -0.059640921652317 -0.437001317739487 0.11808555573225 0.45658665895462
0.029350000269711 0.05444999679178 0.00564999974519014 16 -0.101550556719303 -0.380568444728851 0.190003111958504 0.437316864728928
0.0321500003114343 0.05444999679178 0.00564999974519014 16 -0.132966876029968 -0.293389588594437 0.245072200894356 0.404744416475296
0.0349500003531575 0.05444999679178 0.00564999974519014 16 -0.146061271429062 -0.244218692183495 0.268129199743271 0.39098584651947
-0.0350500006899238 0.0516499967500567 0.00564999974519014 16 -0.053900845348835 -0.240019798278809 0.0738636031746864 0.256847500801086
-0.0322500006482005 0.0516499967500567 0.00564999974519014 16 -0.0477426834404469 -0.26802670955658 0.0707197189331055 0.281280934810638
-0.0294500006064773 0.0516499967500567 0.00564999974519014 16 -0.0349626764655113 -0.326783269643784 0.0613695867359638 0.334329038858414
-0.026650000564754 0.0516499967500567 0.00564999974519014 16 -0.0155449062585831 -0.380825877189636 0.0443739518523216 0.383717387914658
-0.0238500005230308 0.0516499967500567 0.00564999974519014 16 0.00259056477807462 -0.395064264535904 0.0245153196156025 0.395832628011703
-0.0210500004813075 0.0516499967500567 0.00564999974519014 16 0.0193188674747944 -0.33435931801796 0.00745252007618546 0.334999859333038
-0.0182500004395843 0.0516499967500567 0.00564999974519014 16 0.0250821691006422 -0.199695199728012 0.000967508181929588 0.201266542077065
-0.015450000397861 0.0516499967500567 0.00564999974519014 16 0.0221147742122412 -0.0106434989720583 0.00792150292545557 0.0257894843816757
-0.0126500003561378 0.0516499967500567 0.00564999974519014 16 0.00903631374239922 0.180840209126472 0.0236380323767662 0.182602271437645
-0.0098500003144145 0.0516499967500567 0.00564999974519014 16 -0.00619067857041955 0.330705225467682 0.0460426211357117 0.333952397108078
-0.00705000027269125 0.0516499967500567 0.00564999974519014 16 -0.0191334187984467 0.406005442142487 0.0669195353984833 0.411928087472916
-0.004250000230968 0.0516499967500567 0.00564999974519014 16 -0.026344632729888 0.401930004358292 0.082650437951088 0.411184698343277
-0.00145000018924474 0.0516499967500567 0.00564999974519014 16 -0.0271526891738176 0.333131730556488 0.0829276293516159 0.344370454549789
0.0013499998524785 0.0516499967500567 0.00564999974519014 16 -0.0266714282333851 0.222885683178902 0.0722248032689095 0.235808864235878
0.00414999989420176 0.0516499967500567 0.00564999974519014 16 -0.0273408424109221 0.100184723734856 0.0581085309386253 0.119000427424908
0.006949999935925 0.0516499967500567 0.00564999974519014 16 -0.0321806035935879 -0.0096405278891325 0.0535150393843651 0.0631853714585304
0.00974999997764826 0.0516499967500567 0.00564999974519014 16 -0.0381135903298855 -0.0955072566866875 0.0584290400147438 0.118271864950657
0.0125500000193715 0.0516499967500567 0.00564999974519014 16 -0.0404677204787731 -0.158435091376305 0.0641905590891838 0.17566941678524
0.0153500000610948 0.0516499967500567 0.00564999974519014 16 -0.0367129556834698 -0.220951423048973 0.0621515773236752 0.232443943619728
0.018150000102818 0.0516499967500567 0.00564999974519014 16 -0.0255290046334267 -0.291082769632339 0.0481791235506535 0.296145468950272
0.0209500001445413 0.0516499967500567 0.00564999974519014 16 -0.0112556200474501 -0.370611518621445 0.0304578728973866 0.372031271457672
0.0237500001862645 0.0516499967500567 0.00564999974519014 16 0.00419965758919716 -0.42903396487236 0.0178983919322491 0.429427683353424
0.0265500002279878 0.0516499967500567 0.00564999974519014 16 0.0186974760144949 -0.435433864593506 0.0175387822091579 0.436187863349915
0.029350000269711 0.0516499967500567 0.00564999974519014 16 0.0316188856959343 -0.380595654249191 0.0273346900939941 0.382883787155151
0.0321500003114343 0.0516499967500567 0.00564999974519014 16 0.0410571061074734 -0.296631813049316 0.0388337783515453 0.301967203617096
0.0349500003531575 0.0516499967500567 0.00564999974519014 16 0.044529628008604 -0.249542877078056 0.0453697256743908 0.257513016462326
-0.0350500006899238 0.0488499967083335 0.00564999974519014 16 -0.127673640847206 -0.24085396528244 0.16736064851284 0.319876194000244
-0.0322500006482005 0.0488499967083335 0.00564999974519014 16 -0.112540110945702 -0.263374239206314 0.150913059711456 0.323737591505051
-0.0294500006064773 0.0488499967083335 0.00564999974519014 16 -0.0764971971511841 -0.308926224708557 0.111057050526142 0.337076991796494
-0.026650000564754 0.0488499967083335 0.00564999974519014 16 -0.0216201171278954 -0.347261279821396 0.051493089646101 0.351723402738571
-0.0238500005230308 0.0488499967083335 0.00564999974519014 16 0.0405473783612251 -0.349174946546555 -0.017709419131279 0.351967126131058
-0.0210500004813075 0.0488499967083335 0.00564999974519014 16 0.0996496751904488 -0.288000226020813 -0.0813363865017891 0.315420031547546
-0.0182500004395843 0.0488499967083335 0.00564999974519014 16 0.137993991374969 -0.16452868282795 -0.12334430962801 0.247640565037727
-0.015450000397861 0.0488499967083335 0.00564999974519014 16 0.146902218461037 0.00378351681865752 -0.131039872765541 0.196890905499458
-0.0126500003561378 0.0488499967083335 0.00564999974519014 16 0.123856119811535 0.174974009394646 -0.107604660093784 0.239864557981491
-0.0098500003144145 0.0488499967083335 0.00564999974519014 16 0.0780642554163933 0.309722602367401 -0.0575628392398357 0.324554473161697
-0.00705000027269125 0.0488499967083335 0.00564999974519014 16 0.0227573085576296 0.378787308931351 0.00276810303330421 0.379480391740799
-0.004250000230968 0.0488499967083335 0.00564999974519014 16 -0.02997762337327 0.375525742769241 0.0626660883426666 0.381896942853928
-0.00145000018924474 0.0488499967083335 0.00564999974519014 16 -0.0702061206102371 0.312748074531555 0.103980161249638 0.33697497844696
0.0013499998524785 0.0488499967083335 0.00564999974519014 16 -0.0968856066465378 0.211061954498291 0.125797927379608 0.264119446277618
0.00414999989420176 0.0488499967083335 0.00564999974519014 16 -0.11004563421011 0.095983549952507 0.130903735756874 0.196108818054199
0.006949999935925 0.0488499967083335 0.00564999974519014 16 -0.11661896109581 -0.00972983706742525 0.135036155581474 0.178688034415245
0.00974999997764826 0.0488499967083335 0.00564999974519014 16 -0.117200084030628 -0.0953347608447075 0.139030247926712 0.205314353108406
0.0125500000193715 0.0488499967083335 0.00564999974519014 16 -0.112350210547447 -0.159060791134834 0.139683023095131 0.239654451608658
0.0153500000610948 0.0488499967083335 0.00564999974519014 16 -0.0969451367855072 -0.218724250793457 0.124423339962959 0.269666135311127
0.018150000102818 0.0488499967083335 0.00564999974519014 16 -0.0690847262740135 -0.279050171375275 0.0900103598833084 0.301236718893051
0.0209500001445413 0.0488499967083335 0.00564999974519014 16 -0.0278866551816463 -0.342924624681473 0.038491528481245 0.346203058958054
0.0237500001862645 0.0488499967083335 0.00564999974519014 16 0.0242069475352764 -0.385742127895355 -0.0193831622600555 0.386986643075943
0.0265500002279878 0.0488499967083335 0.00564999974519014 16 0.0826328247785568 -0.385274738073349 -0.0747357532382011 0.40106138586998
0.029350000269711 0.0488499967083335 0.00564999974519014 16 0.138210982084274 -0.335650384426117 -0.117935605347157 0.381670355796814
0.0321500003114343 0.0488499967083335 0.00564999974519014 16 0.179237082600594 -0.263999611139297 -0.146166637539864 0.350979208946228
0.0349500003531575 0.0488499967083335 0.00564999974519014 16 0.195656150579453 -0.224720478057861 -0.155577793717384 0.336132526397705
-0.0350500006899238 0.0460499966666102 0.00564999974519014 16 -0.152146801352501 -0.224578633904457 0.184613883495331 0.32812574505806
-0.0322500006482005 0.0460499966666102 0.00564999974519014 16 -0.13359460234642 -0.23929089307785 0.164143085479736 0.319453597068787
-0.0294500006064773 0.0460499966666102 0.00564999974519014 16 -0.088402584195137 -0.266059994697571 0.112863853573799 0.302227050065994
-0.026650000564754 0.0460499966666102 0.00564999974519014 16 -0.0221999194473028 -0.283242791891098 0.0399949625134468 0.286912709474564
-0.0238500005230308 0.0460499966666102 0.00564999974519014 16 0.0531758330762386 -0.26969313621521 -0.0439410954713821 0.278375416994095
-0.0210500004813075 0.0460499966666102 0.00564999974519014 16 0.123856619000435 -0.21137872338295 -0.120627619326115 0.273079574108124
-0.0182500004395843 0.0460499966666102 0.00564999974519014 16 0.173029273748398 -0.109031461179256 -0.17481093108654 0.269046187400818
-0.015450000397861 0.0460499966666102 0.00564999974519014 16 0.187919542193413 0.0231812372803688 -0.18989871442318 0.268165320158005
-0.0126500003561378 0.0460499966666102 0.00564999974519014 16 0.165790170431137 0.158208400011063 -0.167748242616653 0.283999562263489
-0.0098500003144145 0.0460499966666102 0.00564999974519014 16 0.112714029848576 0.264791160821915 -0.110975950956345 0.308438777923584
-0.00705000027269125 0.0460499966666102 0.00564999974519014 16 0.0438204556703568 0.321925610303879 -0.0368042066693306 0.326972305774689
-0.004250000230968 0.0460499966666102 0.00564999974519014 16 -0.0263443328440189 0.320841461420059 0.0419097095727921 0.324637770652771
-0.00145000018924474 0.0460499966666102 0.00564999974519014 16 -0.0828490629792213 0.271818518638611 0.103958815336227 0.302583396434784
0.0013499998524785 0.0460499966666102 0.00564999974519014 16 -0.121118657290936 0.188610643148422 0.14424991607666 0.266555339097977
0.00414999989420176 0.0460499966666102 0.00564999974519014 16 -0.138830125331879 0.0917120575904846 0.160817086696625 0.231402337551117
0.006949999935925 0.0460499966666102 0.00564999974519014 16 -0.145659118890762 -0.00155746063683182 0.169416755437851 0.223430171608925
0.00974999997764826 0.0460499966666102 0.00564999974519014 16 -0.142593592405319 -0.0811595767736435 0.169876962900162 0.236173644661903
0.0125500000193715 0.0460499966666102 0.00564999974519014 16 -0.134253159165382 -0.143335983157158 0.16501672565937 0.256514400243759
0.0153500000610948 0.0460499966666102 0.00564999974519014 16 -0.112390041351318 -0.198170378804207 0.140802890062332 0.267821729183197
0.018150000102818 0.0460499966666102 0.00564999974519014 16 -0.0773137360811234 -0.246252208948135 0.0975853279232979 0.275935620069504
0.0209500001445413 0.0460499966666102 0.00564999974519014 16 -0.0252114851027727 -0.289891302585602 0.032542496919632 0.292799592018127
0.0237500001862645 0.0460499966666102 0.00564999974519014 16 0.0399669744074345 -0.313389867544174 -0.0446899123489857 0.319073289632797
0.0265500002279878 0.0460499966666102 0.00564999974519014 16 0.113687612116337 -0.305385231971741 -0.126338824629784 0.349494636058807
0.029350000269711 0.0460499966666102 0.00564999974519014 16 0.184721067547798 -0.263750672340393 -0.197645545005798 0.377822786569595
0.0321500003114343 0.0460499966666102 0.00564999974519014 16 0.237495392560959 -0.2091104388237 -0.248259961605072 0.402199268341064
0.0349500003531575 0.0460499966666102 0.00564999974519014 16 0.259831458330154 -0.179836794734001 -0.267715632915497 0.414156138896942
-0.0350500006899238 0.043249996624887 0.00564999974519014 16 -0.139129340648651 -0.200942918658257 0.15735924243927 0.290683597326279
-0.0322500006482005 0.043249996624887 0.00564999974519014 16 -0.121101878583431 -0.208632588386536 0.135258808732033 0.276564955711365
-0.0294500006064773 0.043249996624887 0.00564999974519014 16 -0.0789556801319122 -0.219435483217239 0.0835771188139915 0.247731849551201
-0.026650000564754 0.043249996624887 0.00564999974519014 16 -0.020467022433877 -0.219083577394485 0.0167743656784296 0.220675975084305
-0.0238500005230308 0.043249996624887 0.00564999974519014 16 0.0440905317664146 -0.193684533238411 -0.0570943430066109 0.206681966781616
-0.0210500004813075 0.043249996624887 0.00564999974519014 16 0.10318423807621 -0.139067709445953 -0.122068457305431 0.21186675131321
-0.0182500004395843 0.043249996624887 0.00564999974519014 16 0.1448774933815 -0.0568267852067947 -0.168458566069603 0.229340493679047
-0.015450000397861 0.043249996624887 0.00564999974519014 16 0.158406674861908 0.0410007201135159 -0.181231409311295 0.244169116020203
-0.0126500003561378 0.043249996624887 0.00564999974519014 16 0.140877574682236 0.139761358499527 -0.161087200045586 0.255595028400421
-0.0098500003144145 0.043249996624887 0.00564999974519014 16 0.0965552031993866 0.217575252056122 -0.111138291656971 0.262704432010651
-0.00705000027269125 0.043249996624887 0.00564999974519014 16 0.038204237818718 0.262125074863434 -0.0459122061729431 0.268843919038773
-0.004250000230968 0.043249996624887 0.00564999974519014 16 -0.021668802946806 0.264025866985321 0.0234382394701242 0.265948385000229
-0.00145000018924474 0.043249996624887 0.00564999974519014 16 -0.0699178501963615 0.230063050985336 0.0811102315783501 0.253764420747757
0.0013499998524785 0.043249996624887 0.00564999974519014 16 -0.102824866771698 0.167331844568253 0.122100129723549 0.23126032948494
0.00414999989420176 0.043249996624887 0.00564999974519014 16 -0.117445752024651 0.0905413627624512 0.142005026340485 0.20532089471817
0.006949999935925 0.043249996624887 0.00564999974519014 16 -0.123200282454491 0.0122886328026652 0.152443364262581 0.196388140320778
0.00974999997764826 0.043249996624887 0.00564999974519014 16 -0.118911825120449 -0.058308944106102 0.150147750973701 0.200210645794868
0.0125500000193715 0.043249996624887 0.00564999974519014 16 -0.109984710812569 -0.11585383862257 0.139979049563408 0.212397947907448
0.0153500000610948 0.043249996624887 0.00564999974519014 16 -0.0874880105257034 -0.164486348628998 0.110485307872295 0.216603130102158
0.018150000102818 0.043249996624887 0.00564999974519014 16 -0.053877342492342 -0.202095180749893 0.0652940794825554 0.219108521938324
0.0209500001445413 0.043249996624887 0.00564999974519014 16 -0.00588836055248976 -0.230395376682281 0.00332080782391131 0.230494529008865
0.0237500001862645 0.043249996624887 0.00564999974519014 16 0.0523377098143101 -0.240354940295219 -0.0686594769358635 0.255389630794525
0.0265500002279878 0.043249996624887 0.00564999974519014 16 0.116413332521915 -0.228635907173157 -0.14405283331871 0.294240832328796
0.029350000269711 0.043249996624887 0.00564999974519014 16 0.177894845604897 -0.195752590894699 -0.212918505072594 0.339558452367783
0.0321500003114343 0.043249996624887 0.00564999974519014 16 0.22296667098999 -0.157098159193993 -0.262948274612427 0.378861129283905
0.0349500003531575 0.043249996624887 0.00564999974519014 16 0.242751985788345 -0.136868938803673 -0.283796221017838 0.397746056318283
-0.0350500006899238 0.0404499965831637 0.00564999974519014 16 -0.100108988583088 -0.174319624900818 0.100997939705849 0.224966049194336
-0.0322500006482005 0.0404499965831637 0.00564999974519014 16 -0.0856036618351936 -0.177323818206787 0.0838833376765251 0.214028358459473
-0.0294500006064773 0.0404499965831637 0.00564999974519014 16 -0.0532610490918159 -0.178577855229378 0.0433735027909279 0.191332295536995
-0.026650000564754 0.0404499965831637 0.00564999974519014 16 -0.0117964055389166 -0.168125882744789 -0.00514202751219273 0.168617635965347
-0.0238500005230308 0.0404499965831637 0.00564999974519014 16 0.0302225351333618 -0.137573063373566 -0.0570640899240971 0.151973873376846
-0.0210500004813075 0.0404499965831637 0.00564999974519014 16 0.0666046366095543 -0.0875098034739494 -0.100325047969818 0.14885987341404
-0.0182500004395843 0.0404499965831637 0.00564999974519014 16 0.0908666253089905 -0.020849172025919 -0.13049878180027 0.160378813743591
-0.015450000397861 0.0404499965831637 0.00564999974519014 16 0.0979375392198563 0.0520658642053604 -0.136617675423622 0.175974443554878
-0.0126500003561378 0.0404499965831637 0.00564999974519014 16 0.0849370881915092 0.12359831482172 -0.118470512330532 0.191118061542511
-0.0098500003144145 0.0404499965831637 0.00564999974519014 16 0.0549315214157104 0.179638966917992 -0.0797255411744118 0.20406810939312
-0.00705000027269125 0.0404499965831637 0.00564999974519014 16 0.0157341826707125 0.213274523615837 -0.030119514092803 0.215964749455452
-0.004250000230968 0.0404499965831637 0.00564999974519014 16 -0.0239074807614088 0.217060640454292 0.0208938736468554 0.219370558857918
-0.00145000018924474 0.0404499965831637 0.00564999974519014 16 -0.0543006248772144 0.194012761116028 0.0629686787724495 0.211079522967339
0.0013499998524785 0.0404499965831637 0.00564999974519014 16 -0.0735945850610733 0.148191377520561 0.0917427465319633 0.189191907644272
0.00414999989420176 0.0404499965831637 0.00564999974519014 16 -0.0799744203686714 0.0890342593193054 0.104374803602695 0.158798947930336
0.006949999935925 0.0404499965831637 0.00564999974519014 16 -0.0819271728396416 0.0261313579976559 0.109808884561062 0.139473646879196
0.00974999997764826 0.0404499965831637 0.00564999974519014 16 -0.0777698308229446 -0.0336391292512417 0.105357445776463 0.135203287005424
0.0125500000193715 0.0404499965831637 0.00564999974519014 16 -0.0696018040180206 -0.0846892669796944 0.0930534452199936 0.14379021525383
0.0153500000610948 0.0404499965831637 0.00564999974519014 16 -0.0497468896210194 -0.127742692828178 0.0645107179880142 0.151507705450058
0.018150000102818 0.0404499965831637 0.00564999974519014 16 -0.0200082398951054 -0.158937692642212 0.0227311681956053 0.161796852946281
0.0209500001445413 0.0404499965831637 0.00564999974519014 16 0.0187162943184376 -0.179147765040398 -0.0287848673760891 0.182408303022385
0.0237500001862645 0.0404499965831637 0.00564999974519014 16 0.0628203079104424 -0.183500692248344 -0.086113803088665 0.212213292717934
0.0265500002279878 0.0404499965831637 0.00564999974519014 16 0.107766233384609 -0.172545358538628 -0.142675206065178 0.248478725552559
0.029350000269711 0.0404499965831637 0.00564999974519014 16 0.149848565459251 -0.147851020097733 -0.194924995303154 0.286897659301758
0.0321500003114343 0.0404499965831637 0.00564999974519014 16 0.179895892739296 -0.120596826076508 -0.232321992516518 0.317615538835526
0.0349500003531575 0.0404499965831637 0.00564999974519014 16 0.193725809454918 -0.10644968599081 -0.249129861593246 0.333056926727295
-0.0350500006899238 0.0376499965414405 0.00564999974519014 16 -0.0596286095678806 -0.148572161793709 0.0495887920260429 0.16759566962719
-0.0322500006482005 0.0376499965414405 0.00564999974519014 16 -0.0483849048614502 -0.149296000599861 0.0368773713707924 0.16121518611908
-0.0294500006064773 0.0376499965414405 0.00564999974519014 16 -0.0251736640930176 -0.146976217627525 0.0072286780923605 0.149291574954987
-0.026650000564754 0.0376499965414405 0.00564999974519014 16 0.00155867601279169 -0.133278235793114 -0.0255968105047941 0.135722920298576
-0.0238500005230308 0.0376499965414405 0.00564999974519014 16 0.0245806146413088 -0.103335723280907 -0.0589735358953476 0.121492207050323
-0.0210500004813075 0.0376499965414405 0.00564999974519014 16 0.0417143031954765 -0.0586156733334064 -0.0842409804463387 0.110780969262123
-0.0182500004395843 0.0376499965414405 0.00564999974519014 16 0.0500717833638191 -0.00318470899946988 -0.0995054990053177 0.11143908649683
-0.015450000397861 0.0376499965414405 0.00564999974519014 16 0.0491302460432053 0.054735105484724 -0.0976931899785995 0.122285209596157
-0.0126500003561378 0.0376499965414405 0.00564999974519014 16 0.0368699692189693 0.110070541501045 -0.0788823291659355 0.140347212553024
-0.0098500003144145 0.0376499965414405 0.00564999974519014 16 0.016323909163475 0.153881847858429 -0.0478771030902863 0.161982446908951
-0.00705000027269125 0.0376499965414405 0.00564999974519014 16 -0.00769896619021893 0.180646508932114 -0.0115627925843 0.181179836392403