TITLE="DynamicStudio Exported Data"
VARIABLES= "X (m)[m]" "Y (m)[m]" "Z (m)[m]" "Status[-]" "U[-]" "V[-]" "W[-]" "Length[-]"
ZONE T="DynamicStudio Data" F=POINT
-0.0350500006899238 0.0600499968752265 0.00564999974519014 16 0.0157556012272835 0.381039977073669 -0.0115277757868171 0.381539762020111
-0.0322500006482005 0.0600499968752265 0.00564999974519014 16 0.0426334664225578 0.352306723594666 -0.04861880838871 0.358191877603531
-0.0294500006064773 0.0600499968752265 0.00564999974519014 16 0.0986991375684738 0.290531933307648 -0.11950995028019 0.329291611909866
-0.026650000564754 0.0600499968752265 0.00564999974519014 16 0.150738000869751 0.215022072196007 -0.177959084510803 0.317215800285339
-0.0238500005230308 0.0600499968752265 0.00564999974519014 16 0.18348017334938 0.145513609051704 -0.196978449821472 0.306006044149399
-0.0210500004813075 0.0600499968752265 0.00564999974519014 16 0.198037341237068 0.0908205062150955 -0.190662413835526 0.289515644311905
-0.0182500004395843 0.0600499968752265 0.00564999974519014 16 0.205243542790413 0.047564908862114 -0.17643229663372 0.274801164865494
-0.015450000397861 0.0600499968752265 0.00564999974519014 16 0.215776666998863 -7.56718654884025e-05 -0.1839829236269 0.283565312623978
-0.0126500003561378 0.0600499968752265 0.00564999974519014 16 0.219735980033875 -0.06521937251091 -0.202865540981293 0.306091338396072
-0.0098500003144145 0.0600499968752265 0.00564999974519014 16 0.203887656331062 -0.152142405509949 -0.219841077923775 0.336225509643555
-0.00705000027269125 0.0600499968752265 0.00564999974519014 16 0.148807510733604 -0.251450568437576 -0.200418800115585 0.354314506053925
-0.004250000230968 0.0600499968752265 0.00564999974519014 16 0.0548537224531174 -0.332811564207077 -0.13084651529789 0.361791759729385
-0.00145000018924474 0.0600499968752265 0.00564999974519014 16 -0.0657329708337784 -0.365208297967911 -0.0173905342817307 0.371484011411667
0.0013499998524785 0.0600499968752265 0.00564999974519014 16 -0.184029817581177 -0.317009389400482 0.109678588807583 0.382611185312271
0.00414999989420176 0.0600499968752265 0.00564999974519014 16 -0.272319436073303 -0.190555080771446 0.211519494652748 0.393966525793076
0.006949999935925 0.0600499968752265 0.00564999974519014 16 -0.306649625301361 -0.0120873339474201 0.260350823402405 0.4024458527565
0.00974999997764826 0.0600499968752265 0.00564999974519014 16 -0.277420312166214 0.16836005449295 0.240793585777283 0.404089957475662
0.0125500000193715 0.0600499968752265 0.00564999974519014 16 -0.191534906625748 0.302457302808762 0.16143573820591 0.392718136310577
0.0153500000610948 0.0600499968752265 0.00564999974519014 16 -0.0728048011660576 0.364444106817245 0.0448578707873821 0.374342441558838
0.018150000102818 0.0600499968752265 0.00564999974519014 16 0.043566707521677 0.352882891893387 -0.0667898803949356 0.361780732870102
0.0209500001445413 0.0600499968752265 0.00564999974519014 16 0.129353627562523 0.293084144592285 -0.143414914608002 0.350996464490891
0.0237500001862645 0.0600499968752265 0.00564999974519014 16 0.174528181552887 0.214017391204834 -0.174197494983673 0.326509267091751
0.0265500002279878 0.0600499968752265 0.00564999974519014 16 0.19119955599308 0.140562519431114 -0.178740650415421 0.297091424465179
0.029350000269711 0.0600499968752265 0.00564999974519014 16 0.195195391774178 0.0865538194775581 -0.17797663807869 0.277972102165222
0.0321500003114343 0.0600499968752265 0.00564999974519014 16 0.198087438941002 0.0535725988447666 -0.18059991300106 0.273358702659607
0.0349500003531575 0.0600499968752265 0.00564999974519014 16 0.198394536972046 0.0422333292663097 -0.183191686868668 0.273318946361542
-0.0350500006899238 0.0572499968335032 0.00564999974519014 16 0.0142631782218814 0.404991328716278 -0.0174493845552206 0.405617922544479
-0.0322500006482005 0.0572499968335032 0.00564999974519014 16 0.0375710241496563 0.374130964279175 -0.0516321547329426 0.379541099071503
-0.0294500006064773 0.0572499968335032 0.00564999974519014 16 0.0847649201750755 0.30609604716301 -0.114566877484322 0.337646931409836
-0.026650000564754 0.0572499968335032 0.00564999974519014 16 0.128452286124229 0.223346501588821 -0.163568094372749 0.305185467004776
-0.0238500005230308 0.0572499968335032 0.00564999974519014 16 0.155223846435547 0.149076670408249 -0.174838230013847 0.277284502983093
-0.0210500004813075 0.0572499968335032 0.00564999974519014 16 0.165370494127274 0.0932121500372887 -0.160242021083832 0.248421847820282
-0.0182500004395843 0.0572499968335032 0.00564999974519014 16 0.168929025530815 0.0512838624417782 -0.140278786420822 0.225488781929016
-0.015450000397861 0.0572499968335032 0.00564999974519014 16 0.175776988267899 0.00429563270881772 -0.141291469335556 0.225564375519753
-0.0126500003561378 0.0572499968335032 0.00564999974519014 16 0.179411306977272 -0.0625596269965172 -0.157780632376671 0.246975407004356
-0.0098500003144145 0.0572499968335032 0.00564999974519014 16 0.168770387768745 -0.155834048986435 -0.176980644464493 0.289982497692108
-0.00705000027269125 0.0572499968335032 0.00564999974519014 16 0.126682251691818 -0.263268053531647 -0.169579580426216 0.337810158729553
-0.004250000230968 0.0572499968335032 0.00564999974519014 16 0.0517983287572861 -0.354444593191147 -0.119817949831486 0.377717345952988
-0.00145000018924474 0.0572499968335032 0.00564999974519014 16 -0.0472093969583511 -0.391745686531067 -0.0296106766909361 0.39568954706192
0.0013499998524785 0.0572499968335032 0.00564999974519014 16 -0.146902516484261 -0.343051165342331 0.07733353972435 0.38111013174057
0.00414999989420176 0.0572499968335032 0.00564999974519014 16 -0.222632795572281 -0.206648781895638 0.165224090218544 0.345786184072495
0.006949999935925 0.0572499968335032 0.00564999974519014 16 -0.253829181194305 -0.0133149214088917 0.209780156612396 0.329566776752472
0.00974999997764826 0.0572499968335032 0.00564999974519014 16 -0.229749843478203 0.183458372950554 0.193729147315025 0.352097928524017
0.0125500000193715 0.0572499968335032 0.00564999974519014 16 -0.157845824956894 0.328715145587921 0.127549558877945 0.386313140392303
0.0153500000610948 0.0572499968335032 0.00564999974519014 16 -0.0573128908872604 0.394054621458054 0.0266661923378706 0.399092584848404
0.018150000102818 0.0572499968335032 0.00564999974519014 16 0.0395799428224564 0.377978205680847 -0.0659847781062126 0.385730564594269
0.0209500001445413 0.0572499968335032 0.00564999974519014 16 0.110404267907143 0.309620141983032 -0.128467798233032 0.352927356958389
0.0237500001862645 0.0572499968335032 0.00564999974519014 16 0.146134942770004 0.221887424588203 -0.148088917136192 0.30417063832283
0.0265500002279878 0.0572499968335032 0.00564999974519014 16 0.158617526292801 0.143274322152138 -0.147527307271957 0.259713977575302
0.029350000269711 0.0572499968335032 0.00564999974519014 16 0.160676017403603 0.0871580988168716 -0.144174039363861 0.232807800173759
0.0321500003114343 0.0572499968335032 0.00564999974519014 16 0.162694841623306 0.0546572059392929 -0.146498635411263 0.225652098655701
0.0349500003531575 0.0572499968335032 0.00564999974519014 16 0.162844702601433 0.0433273613452911 -0.148877456784248 0.224855855107307
-0.0350500006899238 0.05444999679178 0.00564999974519014 16 0.0150031857192516 0.44450655579567 -0.0296935681253672 0.445749789476395
-0.0322500006482005 0.05444999679178 0.00564999974519014 16 0.0264848284423351 0.408545702695847 -0.0515484735369682 0.412635773420334
-0.0294500006064773 0.05444999679178 0.00564999974519014 16 0.0507437735795975 0.330006390810013 -0.0906919315457344 0.345982909202576
-0.026650000564754 0.05444999679178 0.00564999974519014 16 0.0729422494769096 0.235306322574615 -0.115304015576839 0.272001206874847
-0.0238500005230308 0.05444999679178 0.00564999974519014 16 0.0853856727480888 0.153348907828331 -0.110280558466911 0.207288220524788
-0.0210500004813075 0.05444999679178 0.00564999974519014 16 0.0864165350794792 0.0945641696453094 -0.0829576030373573 0.152617707848549
-0.0182500004395843 0.05444999679178 0.00564999974519014 16 0.0820506289601326 0.0540874674916267 -0.0522537976503372 0.111302375793457
-0.015450000397861 0.05444999679178 0.00564999974519014 16 0.0808678418397903 0.00744225131347775 -0.0403421744704247 0.0906779244542122
-0.0126500003561378 0.05444999679178 0.00564999974519014 16 0.0824582129716873 -0.0620764940977097 -0.0505292005836964 0.114917568862438
-0.0098500003144145 0.05444999679178 0.00564999974519014 16 0.0829438269138336 -0.164474174380302 -0.0765363276004791 0.199472412467003
-0.00705000027269125 0.05444999679178 0.00564999974519014 16 0.0701510906219482 -0.282631099224091 -0.0962210223078728 0.306692034006119
-0.004250000230968 0.05444999679178 0.00564999974519014 16 0.039433553814888 -0.38615870475769 -0.0903097316622734 0.398534059524536
-0.00145000018924474 0.05444999679178 0.00564999974519014 16 -0.00930662732571363 -0.428853213787079 -0.0518637299537659 0.432078182697296
0.0013499998524785 0.05444999679178 0.00564999974519014 16 -0.064604789018631 -0.37860170006752 0.00816805008798838 0.384161084890366
0.00414999989420176 0.05444999679178 0.00564999974519014 16 -0.109506629407406 -0.228098765015602 0.0624985508620739 0.260627746582031
0.006949999935925 0.05444999679178 0.00564999974519014 16 -0.130505084991455 -0.013701937161386 0.0939445197582245 0.161384299397469
0.00974999997764826 0.05444999679178 0.00564999974519014 16 -0.117395296692848 0.206819504499435 0.0846909806132317 0.252445101737976
0.0125500000193715 0.05444999679178 0.00564999974519014 16 -0.0784291326999664 0.368794471025467 0.0484858229756355 0.380146503448486
0.0153500000610948 0.05444999679178 0.00564999974519014 16 -0.0231108330190182 0.440187484025955 -0.0110144829377532 0.440931349992752
0.018150000102818 0.05444999679178 0.00564999974519014 16 0.0265663117170334 0.418638527393341 -0.0565558038651943 0.423275977373123
0.0209500001445413 0.05444999679178 0.00564999974519014 16 0.0614331439137459 0.338798642158508 -0.0841081514954567 0.354447066783905
0.0237500001862645 0.05444999679178 0.00564999974519014 16 0.0759009942412376 0.238353222608566 -0.0809952169656754 0.262932389974594
0.0265500002279878 0.05444999679178 0.00564999974519014 16 0.0798800215125084 0.151172071695328 -0.0723469406366348 0.185655310750008
0.029350000269711 0.05444999679178 0.00564999974519014 16 0.0791219100356102 0.0907075852155685 -0.065385639667511 0.136979654431343
0.0321500003114343 0.05444999679178 0.00564999974519014 16 0.080558642745018 0.0576357543468475 -0.0672124177217484 0.119704157114029
0.0349500003531575 0.05444999679178 0.00564999974519014 16 0.0805651843547821 0.0463038198649883 -0.0690804049372673 0.115788146853447
-0.0350500006899238 0.0516499967500567 0.00564999974519014 16 0.0166481956839561 0.451451778411865 -0.0391389839351177 0.453450918197632
-0.0322500006482005 0.0516499967500567 0.00564999974519014 16 0.0138986445963383 0.414897501468658 -0.0460148304700851 0.417672693729401
-0.0294500006064773 0.0516499967500567 0.00564999974519014 16 0.00927334185689688 0.335309267044067 -0.0560940653085709 0.340095341205597
-0.026650000564754 0.0516499967500567 0.00564999974519014 16 0.00346504244953394 0.2375268638134 -0.0516650229692459 0.243105515837669
-0.0238500005230308 0.0516499967500567 0.00564999974519014 16 -0.00365047040395439 0.153596073389053 -0.027393963187933 0.156062513589859
-0.0210500004813075 0.0516499967500567 0.00564999974519014 16 -0.0138110630214214 0.0919129103422165 0.0120435431599617 0.0937217995524406
-0.0182500004395843 0.0516499967500567 0.00564999974519014 16 -0.0262493044137955 0.0494357645511627 0.0511619299650192 0.0758318156003952
-0.015450000397861 0.0516499967500567 0.00564999974519014 16 -0.0342196822166443 -0.000236853564274497 0.0736162066459656 0.0811812058091164
-0.0126500003561378 0.0516499967500567 0.00564999974519014 16 -0.0331465564668179 -0.0711671113967896 0.0702850669622421 0.105372868478298
-0.0098500003144145 0.0516499967500567 0.00564999974519014 16 -0.0190686192363501 -0.174535095691681 0.0383533276617527 0.179713904857635
-0.00705000027269125 0.0516499967500567 0.00564999974519014 16 0.00187356688547879 -0.290430188179016 -0.0101269250735641 0.290612727403641
-0.004250000230968 0.0516499967500567 0.00564999974519014 16 0.0229549147188663 -0.392314732074738 -0.0565069243311882 0.397027462720871
-0.00145000018924474 0.0516499967500567 0.00564999974519014 16 0.0351644977927208 -0.432162076234818 -0.0824409350752831 0.441358268260956
0.0013499998524785 0.0516499967500567 0.00564999974519014 16 0.0362481623888016 -0.381787329912186 -0.0841315612196922 0.392624020576477
0.00414999989420176 0.0516499967500567 0.00564999974519014 16 0.030925739556551 -0.229916095733643 -0.0734167844057083 0.243326604366302
0.006949999935925 0.0516499967500567 0.00564999974519014 16 0.0238961391150951 -0.0142296608537436 -0.0592032857239246 0.0654105320572853
0.00974999997764826 0.0516499967500567 0.00564999974519014 16 0.0226083509624004 0.21026736497879 -0.0555391758680344 0.218650639057159
0.0125500000193715 0.0516499967500567 0.00564999974519014 16 0.0217867810279131 0.376465082168579 -0.0520632043480873 0.380672037601471
0.0153500000610948 0.0516499967500567 0.00564999974519014 16 0.0209827199578285 0.452040165662766 -0.0554688945412636 0.455913782119751
0.018150000102818 0.0516499967500567 0.00564999974519014 16 0.0125689124688506 0.432235985994339 -0.0424173474311829 0.434494137763977
0.0209500001445413 0.0516499967500567 0.00564999974519014 16 0.000855663267429918 0.351838231086731 -0.0228305757045746 0.352579206228256
0.0237500001862645 0.0516499967500567 0.00564999974519014 16 -0.0127599649131298 0.248719930648804 0.0109712276607752 0.249288573861122
0.0265500002279878 0.0516499967500567 0.00564999974519014 16 -0.0213769339025021 0.158166080713272 0.0346497409045696 0.163322031497955
0.029350000269711 0.0516499967500567 0.00564999974519014 16 -0.0263080261647701 0.0942284762859344 0.0487514771521091 0.10930610448122
0.0321500003114343 0.0516499967500567 0.00564999974519014 16 -0.0263145603239536 0.0583813227713108 0.049200277775526 0.0807558223605156
0.0349500003531575 0.0516499967500567 0.00564999974519014 16 -0.0265122000128031 0.0457338653504848 0.048526469618082 0.0717586278915405
-0.0350500006899238 0.0488499967083335 0.00564999974519014 16 0.0271644424647093 0.413990318775177 -0.0406858064234257 0.416870772838593
-0.0322500006482005 0.0488499967083335 0.00564999974519014 16 0.0114651871845126 0.38090193271637 -0.0321634374558926 0.382429361343384
-0.0294500006064773 0.0488499967083335 0.00564999974519014 16 -0.0197449289262295 0.31066831946373 -0.0119078317657113 0.31152281165123
-0.026650000564754 0.0488499967083335 0.00564999974519014 16 -0.0521170534193516 0.221909508109093 0.0198042541742325 0.228806093335152
-0.0238500005230308 0.0488499967083335 0.00564999974519014 16 -0.0785776525735855 0.143629312515259 0.058777779340744 0.173950150609016
-0.0210500004813075 0.0488499967083335 0.00564999974519014 16 -0.0990746691823006 0.0807763412594795 0.102301359176636 0.163725912570953
-0.0182500004395843 0.0488499967083335 0.00564999974519014 16 -0.117103427648544 0.0341155640780926 0.142141908407211 0.187300324440002
-0.015450000397861 0.0488499967083335 0.00564999974519014 16 -0.128153428435326 -0.0188760366290808 0.167819336056709 0.211997494101524
-0.0126500003561378 0.0488499967083335 0.00564999974519014 16 -0.125530272722244 -0.0867390781641006 0.16657418012619 0.225894838571548
-0.0098500003144145 0.0488499967083335 0.00564999974519014 16 -0.0999938324093819 -0.178862407803535 0.127984583377838 0.241600036621094
-0.00705000027269125 0.0488499967083335 0.00564999974519014 16 -0.053187545388937 -0.276358723640442 0.0574591755867004 0.287236154079437
-0.004250000230968 0.0488499967083335 0.00564999974519014 16 0.00758476695045829 -0.358799636363983 -0.0287498813122511 0.360029548406601
-0.00145000018924474 0.0488499967083335 0.00564999974519014 16 0.0667858198285103 -0.386029660701752 -0.104063704609871 0.405349850654602
0.0013499998524785 0.0488499967083335 0.00564999974519014 16 0.112965747714043 -0.337466835975647 -0.155717462301254 0.388449549674988
0.00414999989420176 0.0488499967083335 0.00564999974519014 16 0.139591529965401 -0.202251046895981 -0.180494338274002 0.304908990859985
0.006949999935925 0.0488499967083335 0.00564999974519014 16 0.145672127604485 -0.0133419539779425 -0.182148769497871 0.23361624777317
0.00974999997764826 0.0488499967083335 0.00564999974519014 16 0.133017763495445 0.18549045920372 -0.166713982820511 0.282655239105225
0.0125500000193715 0.0488499967083335 0.00564999974519014 16 0.101101063191891 0.336002618074417 -0.130809113383293 0.374473243951797
0.0153500000610948 0.0488499967083335 0.00564999974519014 16 0.0540184751152992 0.410865932703018 -0.0841164365410805 0.422852665185928
0.018150000102818 0.0488499967083335 0.00564999974519014 16 -0.00178532872814685 0.402485817670822 -0.0213729310780764 0.40305683016777
0.0209500001445413 0.0488499967083335 0.00564999974519014 16 -0.0533335134387016 0.338351279497147 0.0401392951607704 0.344872742891312
0.0237500001862645 0.0488499967083335 0.00564999974519014 16 -0.091311864554882 0.248792424798012 0.0987517088651657 0.282820492982864
0.0265500002279878 0.0488499967083335 0.00564999974519014 16 -0.111769266426563 0.164083003997803 0.135969787836075 0.240631222724915
0.029350000269711 0.0488499967083335 0.00564999974519014 16 -0.119712069630623 0.0993398502469063 0.155903905630112 0.220239445567131
0.0321500003114343 0.0488499967083335 0.00564999974519014 16 -0.120128743350506 0.05904720723629 0.159182265400887 0.207981929183006
0.0349500003531575 0.0488499967083335 0.00564999974519014 16 -0.11931187659502 0.0440385416150093 0.15859842300415 0.203293323516846
-0.0350500006899238 0.0460499966666102 0.00564999974519014 16 0.0443436354398727 0.338048338890076 -0.0385160073637962 0.343112975358963
-0.0322500006482005 0.0460499966666102 0.00564999974519014 16 0.0223765484988689 0.313756465911865 -0.0207986980676651 0.315240263938904
-0.0294500006064773 0.0460499966666102 0.00564999974519014 16 -0.0232878550887108 0.261775076389313 0.0180593244731426 0.263428658246994
-0.026650000564754 0.0460499966666102 0.00564999974519014 16 -0.0715957134962082 0.192490577697754 0.0648041963577271 0.21535587310791
-0.0238500005230308 0.0460499966666102 0.00564999974519014 16 -0.110752396285534 0.126368701457977 0.110669650137424 0.201203659176826
-0.0210500004813075 0.0460499966666102 0.00564999974519014 16 -0.13749697804451 0.0661425143480301 0.15199576318264 0.215367048978806
-0.0182500004395843 0.0460499966666102 0.00564999974519014 16 -0.156194344162941 0.0155467083677649 0.185607984662056 0.243081659078598
-0.015450000397861 0.0460499966666102 0.00564999974519014 16 -0.164651572704315 -0.0390946231782436 0.205776214599609 0.26642519235611
-0.0126500003561378 0.0460499966666102 0.00564999974519014 16 -0.157789349555969 -0.100223638117313 0.200939923524857 0.27444326877594
-0.0098500003144145 0.0460499966666102 0.00564999974519014 16 -0.126233071088791 -0.172729432582855 0.158423498272896 0.266210913658142
-0.00705000027269125 0.0460499966666102 0.00564999974519014 16 -0.0700901374220848 -0.24261049926281 0.0794705525040627 0.264741480350494
-0.004250000230968 0.0460499966666102 0.00564999974519014 16 0.00474021770060062 -0.296348214149475 -0.0226624216884375 0.297251284122467
-0.00145000018924474 0.0460499966666102 0.00564999974519014 16 0.0810070261359215 -0.307686030864716 -0.118776217103004 0.339618355035782
0.0013499998524785 0.0460499966666102 0.00564999974519014 16 0.144837751984596 -0.264516234397888 -0.192297533154488 0.357666254043579
0.00414999989420176 0.0460499966666102 0.00564999974519014 16 0.182911887764931 -0.159406170248985 -0.230921193957329 0.334950268268585
0.006949999935925 0.0460499966666102 0.00564999974519014 16 0.193569630384445 -0.0159599371254444 -0.237655758857727 0.306926995515823
0.00974999997764826 0.0460499966666102 0.00564999974519014 16 0.174894422292709 0.1375343054533 -0.213326752185822 0.308240234851837
0.0125500000193715 0.0460499966666102 0.00564999974519014 16 0.131077349185944 0.258558481931686 -0.161507159471512 0.331840813159943
0.0153500000610948 0.0460499966666102 0.00564999974519014 16 0.0649130567908287 0.327919274568558 -0.0894321426749229 0.346038818359375
0.018150000102818 0.0460499966666102 0.00564999974519014 16 -0.0109654869884253 0.335515052080154 -0.00280218455009162 0.335705906152725
0.0209500001445413 0.0460499966666102 0.00564999974519014 16 -0.0821296945214272 0.29809382557869 0.082083635032177 0.319910824298859
0.0237500001862645 0.0460499966666102 0.00564999974519014 16 -0.133786559104919 0.233954176306725 0.156041845679283 0.311420053243637
0.0265500002279878 0.0460499966666102 0.00564999974519014 16 -0.162412956357002 0.164506882429123 0.204430133104324 0.308597087860107
0.029350000269711 0.0460499966666102 0.00564999974519014 16 -0.172725215554237 0.104003481566906 0.229208290576935 0.305265724658966
0.0321500003114343 0.0460499966666102 0.00564999974519014 16 -0.173664554953575 0.0608351305127144 0.235094159841537 0.298545718193054
0.0349500003531575 0.0460499966666102 0.00564999974519014 16 -0.172411471605301 0.0433877035975456 0.23492506146431 0.294615000486374
-0.0350500006899238 0.043249996624887 0.00564999974519014 16 0.064183883368969 0.257673263549805 -0.0359429605305195 0.267968237400055
-0.0322500006482005 0.043249996624887 0.00564999974519014 16 0.0418266840279102 0.241137981414795 -0.0144413867965341 0.245164334774017
-0.0294500006064773 0.043249996624887 0.00564999974519014 16 -0.00560776889324188 0.205337658524513 0.0325066782534122 0.207970395684242
-0.026650000564754 0.043249996624887 0.00564999974519014 16 -0.0570621602237225 0.155070215463638 0.0839945301413536 0.185358956456184
-0.0238500005230308 0.043249996624887 0.00564999974519014 16 -0.0996280983090401 0.10159508138895 0.129895865917206 0.192666172981262
-0.0210500004813075 0.043249996624887 0.00564999974519014 16 -0.127663195133209 0.0476870909333229 0.164618968963623 0.213708579540253
-0.0182500004395843 0.043249996624887 0.00564999974519014 16 -0.143912628293037 -0.00207400368526578 0.188602268695831 0.237246632575989
-0.015450000397861 0.043249996624887 0.00564999974519014 16 -0.147642076015472 -0.0522534027695656 0.198717042803764 0.25301593542099
-0.0126500003561378 0.043249996624887 0.00564999974519014 16 -0.136677488684654 -0.103040710091591 0.18618880212307 0.25291183590889
-0.0098500003144145 0.043249996624887 0.00564999974519014 16 -0.105321034789085 -0.155606880784035 0.141755267977715 0.235373273491859
-0.00705000027269125 0.043249996624887 0.00564999974519014 16 -0.0543821938335896 -0.20162159204483 0.0664365887641907 0.219140380620956
-0.004250000230968 0.043249996624887 0.00564999974519014 16 0.0119117749854922 -0.231933325529099 -0.0281488746404648 0.233938694000244
-0.00145000018924474 0.043249996624887 0.00564999974519014 16 0.0784876123070717 -0.232163220643997 -0.11700826138258 0.27157136797905
0.0013499998524785 0.043249996624887 0.00564999974519014 16 0.133844375610352 -0.19633612036705 -0.184591606259346 0.300892412662506
0.00414999989420176 0.043249996624887 0.00564999974519014 16 0.164881676435471 -0.121300026774406 -0.218963608145714 0.299741089344025
0.006949999935925 0.043249996624887 0.00564999974519014 16 0.172470182180405 -0.021973043680191 -0.223823681473732 0.283418089151382
0.00974999997764826 0.043249996624887 0.00564999974519014 16 0.153974518179893 0.0862252414226532 -0.198763489723206 0.265800446271896
0.0125500000193715 0.043249996624887 0.00564999974519014 16 0.114559732377529 0.176736146211624 -0.148481443524361 0.257694274187088
0.0153500000610948 0.043249996624887 0.00564999974519014 16 0.0535709150135517 0.238241240382195 -0.0756641700863838 0.255643874406815
0.018150000102818 0.043249996624887 0.00564999974519014 16 -0.0180492512881756 0.259901255369186 0.0118225989863276 0.26079535484314
0.0209500001445413 0.043249996624887 0.00564999974519014 16 -0.0881191268563271 0.249067947268486 0.100030735135078 0.282499492168427
0.0237500001862645 0.043249996624887 0.00564999974519014 16 -0.141277983784676 0.212175503373146 0.176428556442261 0.310007989406586
0.0265500002279878 0.043249996624887 0.00564999974519014 16 -0.172102302312851 0.161833360791206 0.227828130125999 0.328199476003647
0.029350000269711 0.043249996624887 0.00564999974519014 16 -0.183204457163811 0.109607815742493 0.254101872444153 0.331881761550903
0.0321500003114343 0.043249996624887 0.00564999974519014 16 -0.183556571602821 0.0675534382462502 0.260706573724747 0.325920850038528
0.0349500003531575 0.043249996624887 0.00564999974519014 16 -0.181713938713074 0.0492477305233479 0.260597229003906 0.321490615606308
-0.0350500006899238 0.0404499965831637 0.00564999974519014 16 0.0714154690504074 0.188605085015297 -0.0322632119059563 0.204237505793571
-0.0322500006482005 0.0404499965831637 0.00564999974519014 16 0.053321298211813 0.178058013319969 -0.0127946948632598 0.186310276389122
-0.0294500006064773 0.0404499965831637 0.00564999974519014 16 0.0137077243998647 0.153854250907898 0.0309110768139362 0.157526269555092
-0.026650000564754 0.0404499965831637 0.00564999974519014 16 -0.0302746016532183 0.118082329630852 0.0775382593274117 0.144472032785416
-0.0238500005230308 0.0404499965831637 0.00564999974519014 16 -0.067757360637188 0.0756382644176483 0.118836112320423 0.156314522027969
-0.0210500004813075 0.0404499965831637 0.00564999974519014 16 -0.0922267809510231 0.0301337093114853 0.147135481238365 0.176246047019958
-0.0182500004395843 0.0404499965831637 0.00564999974519014 16 -0.104049123823643 -0.0146766621619463 0.163067415356636 0.193991258740425
-0.015450000397861 0.0404499965831637 0.00564999974519014 16 -0.103161849081516 -0.0573668032884598 0.163752347230911 0.201861709356308
-0.0126500003561378 0.0404499965831637 0.00564999974519014 16 -0.0898702144622803 -0.0977166593074799 0.144297480583191 0.196078971028328
-0.0098500003144145 0.0404499965831637 0.00564999974519014 16 -0.0627663657069206 -0.134722456336021 0.100705832242966 0.179531112313271
-0.00705000027269125 0.0404499965831637 0.00564999974519014 16 -0.0235397685319185 -0.164263233542442 0.0351577922701836 0.169624879956245
-0.004250000230968 0.0404499965831637 0.00564999974519014 16 0.0249296221882105 -0.180442154407501 -0.0415615513920784 0.186837419867516
-0.00145000018924474 0.0404499965831637 0.00564999974519014 16 0.0712137222290039 -0.176100730895996 -0.111146196722984 0.220082581043243
0.0013499998524785 0.0404499965831637 0.00564999974519014 16 0.107535533607006 -0.148886203765869 -0.160720735788345 0.244053572416306
0.00414999989420176 0.0404499965831637 0.00564999974519014 16 0.124573960900307 -0.0979641973972321 -0.183278322219849 0.242294445633888
0.006949999935925 0.0404499965831637 0.00564999974519014 16 0.125998333096504 -0.0317188315093517 -0.183154672384262 0.224560230970383
0.00974999997764826 0.0404499965831637 0.00564999974519014 16 0.110759422183037 0.0422647558152676 -0.161612063646317 0.200430572032928
0.0125500000193715 0.0404499965831637 0.00564999974519014 16 0.0817304104566574 0.108855158090591 -0.120495401322842 0.181792318820953
0.0153500000610948 0.0404499965831637 0.00564999974519014 16 0.0355456210672855 0.161549836397171 -0.0581025294959545 0.175321832299232
0.018150000102818 0.0404499965831637 0.00564999974519014 16 -0.0222481749951839 0.191030815243721 0.0204188413918018 0.193402916193008
0.0209500001445413 0.0404499965831637 0.00564999974519014 16 -0.0814663618803024 0.199078604578972 0.103036403656006 0.238506942987442
0.0237500001862645 0.0404499965831637 0.00564999974519014 16 -0.129712492227554 0.184870794415474 0.176368951797485 0.286545872688293
0.0265500002279878 0.0404499965831637 0.00564999974519014 16 -0.158956989645958 0.15421935915947 0.226526170969009 0.3168044090271
0.029350000269711 0.0404499965831637 0.00564999974519014 16 -0.170773237943649 0.114510349929333 0.252532482147217 0.325651317834854
0.0321500003114343 0.0404499965831637 0.00564999974519014 16 -0.171239987015724 0.0783647671341896 0.258789449930191 0.320056468248367
0.0349500003531575 0.0404499965831637 0.00564999974519014 16 -0.169952377676964 0.0613927282392979 0.259169787168503 0.315945982933044
-0.0350500006899238 0.0376499965414405 0.00564999974519014 16 0.0624300688505173 0.141720816493034 -0.0250010956078768 0.156867325305939
-0.0322500006482005 0.0376499965414405 0.00564999974519014 16 0.0498509481549263 0.133733689785004 -0.00976916868239641 0.143056809902191
-0.0294500006064773 0.0376499965414405 0.00564999974519014 16 0.0217922460287809 0.1146639585495 0.0248492266982794 0.11933234333992
-0.026650000564754 0.0376499965414405 0.00564999974519014 16 -0.00985265523195267 0.0865320116281509 0.0627361088991165 0.107334449887276
-0.0238500005230308 0.0376499965414405 0.00564999974519014 16 -0.0379158481955528 0.0515217483043671 0.0974120199680328 0.116538420319557
-0.0210500004813075 0.0376499965414405 0.00564999974519014 16 -0.0564062632620335 0.0137026747688651 0.120737455785275 0.133966267108917
-0.0182500004395843 0.0376499965414405 0.00564999974519014 16 -0.063996285200119 -0.023986766114831 0.131568521261215 0.148260474205017
-0.015450000397861 0.0376499965414405 0.00564999974519014 16 -0.0603020526468754 -0.0584317483007908 0.126792401075363 0.152075380086899
-0.0126500003561378 0.0376499965414405 0.00564999974519014 16 -0.0465283393859863 -0.0896549820899963 0.103922694921494 0.144923523068428
-0.0098500003144145 0.0376499965414405 0.00564999974519014 16 -0.0243430007249117 -0.116714052855968 0.0636754930019379 0.135164052248001
-0.00705000027269125 0.0376499965414405 0.00564999974519014 16 0.00396080547943711 -0.137165933847427 0.00930330529808998 0.137538105249405
-0.004250000230968 0.0376499965414405 0.00564999974519014 16 0.0362616665661335 -0.147039800882339 -0.0492684803903103 0.159257635474205