TITLE="DynamicStudio Exported Data"
VARIABLES= "X (m)[m]" "Y (m)[m]" "Z (m)[m]" "Status[-]" "U[-]" "V[-]" "W[-]" "Length[-]"
ZONE T="DynamicStudio Data" F=POINT
-0.0350500006899238 0.0600499968752265 0.00564999974519014 16 0.22021159529686 0.220368459820747 -0.331804037094116 0.455136597156525
-0.0322500006482005 0.0600499968752265 0.00564999974519014 16 0.221563071012497 0.192438334226608 -0.333480149507523 0.444220364093781
-0.0294500006064773 0.0600499968752265 0.00564999974519014 16 0.228775650262833 0.134223803877831 -0.340981036424637 0.431998133659363
-0.026650000564754 0.0600499968752265 0.00564999974519014 16 0.233552649617195 0.0691018775105476 -0.346559852361679 0.423586636781693
-0.0238500005230308 0.0600499968752265 0.00564999974519014 16 0.242118611931801 0.00499172322452068 -0.354309320449829 0.429163634777069
-0.0210500004813075 0.0600499968752265 0.00564999974519014 16 0.242602452635765 -0.0591144189238548 -0.350726813077927 0.430534273386002
-0.0182500004395843 0.0600499968752265 0.00564999974519014 16 0.229079395532608 -0.13744954764843 -0.325811117887497 0.421334356069565
-0.015450000397861 0.0600499968752265 0.00564999974519014 16 0.186763226985931 -0.224162071943283 -0.262633681297302 0.392562836408615
-0.0126500003561378 0.0600499968752265 0.00564999974519014 16 0.112425968050957 -0.309580624103546 -0.162333488464355 0.367194652557373
-0.0098500003144145 0.0600499968752265 0.00564999974519014 16 0.00997142866253853 -0.361966401338577 -0.0325294919312 0.363561928272247
-0.00705000027269125 0.0600499968752265 0.00564999974519014 16 -0.108044728636742 -0.363166987895966 0.109559252858162 0.394420027732849
-0.004250000230968 0.0600499968752265 0.00564999974519014 16 -0.222476601600647 -0.294634610414505 0.241128191351891 0.440962821245193
-0.00145000018924474 0.0600499968752265 0.00564999974519014 16 -0.308395713567734 -0.167421460151672 0.337585985660553 0.486931353807449
0.0013499998524785 0.0600499968752265 0.00564999974519014 16 -0.341003477573395 -0.00117243733257055 0.369741469621658 0.502984583377838
0.00414999989420176 0.0600499968752265 0.00564999974519014 16 -0.306062668561935 0.162414386868477 0.330739706754684 0.479000568389893
0.006949999935925 0.0600499968752265 0.00564999974519014 16 -0.214836210012436 0.288959056138992 0.22892715036869 0.426684379577637
0.00974999997764826 0.0600499968752265 0.00564999974519014 16 -0.0944093987345695 0.351794928312302 0.0973619297146797 0.377030700445175
0.0125500000193715 0.0600499968752265 0.00564999974519014 16 0.0208943448960781 0.349179893732071 -0.0298244655132294 0.35107359290123
0.0153500000610948 0.0600499968752265 0.00564999974519014 16 0.112512111663818 0.298033535480499 -0.128853961825371 0.343636870384216
0.018150000102818 0.0600499968752265 0.00564999974519014 16 0.173628956079483 0.223147004842758 -0.189931154251099 0.340610414743423
0.0209500001445413 0.0600499968752265 0.00564999974519014 16 0.212293386459351 0.151728302240372 -0.226915866136551 0.345804542303085
0.0237500001862645 0.0600499968752265 0.00564999974519014 16 0.23204194009304 0.0879204347729683 -0.249332621693611 0.351767301559448
0.0265500002279878 0.0600499968752265 0.00564999974519014 16 0.239464089274406 0.0297384075820446 -0.271994829177856 0.36360502243042
0.029350000269711 0.0600499968752265 0.00564999974519014 16 0.234226033091545 -0.0342742763459682 -0.287993937730789 0.372796297073364
0.0321500003114343 0.0600499968752265 0.00564999974519014 16 0.2246915102005 -0.0914220809936523 -0.299196898937225 0.385179251432419
0.0349500003531575 0.0600499968752265 0.00564999974519014 16 0.217363685369492 -0.120276100933552 -0.300385862588882 0.389801204204559
-0.0350500006899238 0.0572499968335032 0.00564999974519014 16 0.193307161331177 0.229020044207573 -0.309780538082123 0.431024163961411
-0.0322500006482005 0.0572499968335032 0.00564999974519014 16 0.192562118172646 0.200004503130913 -0.310352385044098 0.416413962841034
-0.0294500006064773 0.0572499968335032 0.00564999974519014 16 0.195067569613457 0.138655483722687 -0.314529359340668 0.395228296518326
-0.026650000564754 0.0572499968335032 0.00564999974519014 16 0.196033880114555 0.070997379720211 -0.315465867519379 0.378138363361359
-0.0238500005230308 0.0572499968335032 0.00564999974519014 16 0.201370730996132 0.0044827051460743 -0.318163573741913 0.376561164855957
-0.0210500004813075 0.0572499968335032 0.00564999974519014 16 0.20036356151104 -0.0620682388544083 -0.310320228338242 0.374561965465546
-0.0182500004395843 0.0572499968335032 0.00564999974519014 16 0.188285291194916 -0.143981277942657 -0.283981651067734 0.369902044534683
-0.015450000397861 0.0572499968335032 0.00564999974519014 16 0.152263298630714 -0.236386552453041 -0.225556865334511 0.360469996929169
-0.0126500003561378 0.0572499968335032 0.00564999974519014 16 0.0919069051742554 -0.32849583029747 -0.137836202979088 0.367906510829926
-0.0098500003144145 0.0572499968335032 0.00564999974519014 16 0.00887540634721518 -0.387617439031601 -0.027898145839572 0.388721436262131
-0.00705000027269125 0.0572499968335032 0.00564999974519014 16 -0.0874612033367157 -0.39190274477005 0.091845266520977 0.41191354393959
-0.004250000230968 0.0572499968335032 0.00564999974519014 16 -0.18428972363472 -0.320943385362625 0.20418818295002 0.422682136297226
-0.00145000018924474 0.0572499968335032 0.00564999974519014 16 -0.259686380624771 -0.184398666024208 0.289194494485855 0.430201500654221
0.0013499998524785 0.0572499968335032 0.00564999974519014 16 -0.290479630231857 -0.00360872992314398 0.319842219352722 0.432076930999756
0.00414999989420176 0.0572499968335032 0.00564999974519014 16 -0.262151002883911 0.175392657518387 0.288615256547928 0.427533030509949
0.006949999935925 0.0572499968335032 0.00564999974519014 16 -0.18379382789135 0.314253777265549 0.201071709394455 0.415891140699387
0.00974999997764826 0.0572499968335032 0.00564999974519014 16 -0.0806708931922913 0.382797449827194 0.0868536606431007 0.400730907917023
0.0125500000193715 0.0572499968335032 0.00564999974519014 16 0.0180277097970247 0.37890887260437 -0.0262489207088947 0.380244553089142
0.0153500000610948 0.0572499968335032 0.00564999974519014 16 0.0948274806141853 0.320291042327881 -0.11462677270174 0.353154212236404
0.018150000102818 0.0572499968335032 0.00564999974519014 16 0.146859303116798 0.235881000757217 -0.170438751578331 0.325970649719238
0.0209500001445413 0.0572499968335032 0.00564999974519014 16 0.179182723164558 0.156480699777603 -0.202965408563614 0.312710106372833
0.0237500001862645 0.0572499968335032 0.00564999974519014 16 0.196734040975571 0.0895020961761475 -0.221120998263359 0.309207707643509
0.0265500002279878 0.0572499968335032 0.00564999974519014 16 0.202164381742477 0.0313546769320965 -0.238001734018326 0.313844501972198
0.029350000269711 0.0572499968335032 0.00564999974519014 16 0.196293219923973 -0.0318632423877716 -0.249123454093933 0.318761318922043
0.0321500003114343 0.0572499968335032 0.00564999974519014 16 0.18592481315136 -0.0890830457210541 -0.257673561573029 0.32999923825264
0.0349500003531575 0.0572499968335032 0.00564999974519014 16 0.178951010107994 -0.118836231529713 -0.259108036756516 0.336574643850327
-0.0350500006899238 0.05444999679178 0.00564999974519014 16 0.122765406966209 0.243894830346107 -0.244840502738953 0.366746366024017
-0.0322500006482005 0.05444999679178 0.00564999974519014 16 0.119213961064816 0.212995290756226 -0.242712080478668 0.344221025705338
-0.0294500006064773 0.05444999679178 0.00564999974519014 16 0.113931261003017 0.146260738372803 -0.239932179450989 0.303216069936752
-0.026650000564754 0.05444999679178 0.00564999974519014 16 0.107229195535183 0.0733995512127876 -0.231900215148926 0.265825688838959
-0.0238500005230308 0.05444999679178 0.00564999974519014 16 0.104652926325798 0.00125386903528124 -0.22433677315712 0.247549578547478
-0.0210500004813075 0.05444999679178 0.00564999974519014 16 0.099123939871788 -0.0700344890356064 -0.208162069320679 0.240960225462914
-0.0182500004395843 0.05444999679178 0.00564999974519014 16 0.0903636440634727 -0.157270431518555 -0.181001752614975 0.256244421005249
-0.015450000397861 0.05444999679178 0.00564999974519014 16 0.0707732364535332 -0.256785750389099 -0.136157661676407 0.299143254756927
-0.0126500003561378 0.05444999679178 0.00564999974519014 16 0.0432139821350574 -0.357692033052444 -0.0797875672578812 0.36902180314064
-0.0098500003144145 0.05444999679178 0.00564999974519014 16 0.00441048480570316 -0.425803035497665 -0.0157521162182093 0.426117122173309
-0.00705000027269125 0.05444999679178 0.00564999974519014 16 -0.0432638563215733 -0.434389740228653 0.0518724657595158 0.439610004425049
-0.004250000230968 0.05444999679178 0.00564999974519014 16 -0.098584309220314 -0.359668672084808 0.118399679660797 0.391278564929962
-0.00145000018924474 0.05444999679178 0.00564999974519014 16 -0.147340685129166 -0.210416078567505 0.173410728573799 0.309928208589554
0.0013499998524785 0.05444999679178 0.00564999974519014 16 -0.172308877110481 -0.00942514091730118 0.19713132083416 0.261992245912552
0.00414999989420176 0.05444999679178 0.00564999974519014 16 -0.159048482775688 0.192023694515228 0.182367354631424 0.308913201093674
0.006949999935925 0.05444999679178 0.00564999974519014 16 -0.111560054123402 0.350624680519104 0.12733106315136 0.389353960752487
0.00974999997764826 0.05444999679178 0.00564999974519014 16 -0.0487645268440247 0.429438829421997 0.0538403242826462 0.435539275407791
0.0125500000193715 0.05444999679178 0.00564999974519014 16 0.010658897459507 0.424672484397888 -0.0223302971571684 0.425392717123032
0.0153500000610948 0.05444999679178 0.00564999974519014 16 0.0532511174678802 0.355647623538971 -0.0806276202201843 0.368539988994598
0.018150000102818 0.05444999679178 0.00564999974519014 16 0.0826996862888336 0.256946712732315 -0.117568366229534 0.294420063495636
0.0209500001445413 0.05444999679178 0.00564999974519014 16 0.100190952420235 0.164149284362793 -0.137174725532532 0.236220479011536
0.0237500001862645 0.05444999679178 0.00564999974519014 16 0.111203089356422 0.0890375003218651 -0.145576223731041 0.203681707382202
0.0265500002279878 0.05444999679178 0.00564999974519014 16 0.112592831254005 0.028730109333992 -0.152409330010414 0.191653773188591
0.029350000269711 0.05444999679178 0.00564999974519014 16 0.105752468109131 -0.0322207808494568 -0.15360189974308 0.189249321818352
0.0321500003114343 0.05444999679178 0.00564999974519014 16 0.0950723364949226 -0.0860918015241623 -0.154593974351883 0.200872704386711
0.0349500003531575 0.05444999679178 0.00564999974519014 16 0.0886054858565331 -0.114196881651878 -0.152438819408417 0.210070118308067
-0.0350500006899238 0.0516499967500567 0.00564999974519014 16 0.0373373180627823 0.247860133647919 -0.142263486981392 0.288214534521103
-0.0322500006482005 0.0516499967500567 0.00564999974519014 16 0.0292407646775246 0.217120185494423 -0.136698693037033 0.258230000734329
-0.0294500006064773 0.0516499967500567 0.00564999974519014 16 0.0139538114890456 0.149148151278496 -0.125242069363594 0.195257410407066
-0.026650000564754 0.0516499967500567 0.00564999974519014 16 -0.0017802802613005 0.0736320614814758 -0.108151756227016 0.130849733948708
-0.0238500005230308 0.0516499967500567 0.00564999974519014 16 -0.01322409696877 -0.00241616205312312 -0.0907987505197525 0.0917884930968285
-0.0210500004813075 0.0516499967500567 0.00564999974519014 16 -0.0219612997025251 -0.0771460384130478 -0.0705025419592857 0.106791473925114
-0.0182500004395843 0.0516499967500567 0.00564999974519014 16 -0.0256822425872087 -0.165823966264725 -0.0493302829563618 0.174901813268661
-0.015450000397861 0.0516499967500567 0.00564999974519014 16 -0.0247735660523176 -0.265187948942184 -0.0284710433334112 0.267859995365143
-0.0126500003561378 0.0516499967500567 0.00564999974519014 16 -0.0144086526706815 -0.364624619483948 -0.0161161106079817 0.365264892578125
-0.0098500003144145 0.0516499967500567 0.00564999974519014 16 -0.00122532004024833 -0.43222787976265 -0.010758338496089 0.432363480329514
-0.00705000027269125 0.0516499967500567 0.00564999974519014 16 0.00879135821014643 -0.440843850374222 -0.00775527162477374 0.440999686717987
-0.004250000230968 0.0516499967500567 0.00564999974519014 16 0.00482933968305588 -0.36679682135582 0.00303490785881877 0.366841167211533
-0.00145000018924474 0.0516499967500567 0.00564999974519014 16 -0.00889463163912296 -0.216976270079613 0.0212873108685017 0.218199372291565
0.0013499998524785 0.0516499967500567 0.00564999974519014 16 -0.02413734421134 -0.0130490809679031 0.0371295809745789 0.0461681224405766
0.00414999989420176 0.0516499967500567 0.00564999974519014 16 -0.0284053254872561 0.193849816918373 0.0430581904947758 0.200595661997795
0.006949999935925 0.0516499967500567 0.00564999974519014 16 -0.0204070657491684 0.359096020460129 0.0305035058408976 0.360966563224792
0.00974999997764826 0.0516499967500567 0.00564999974519014 16 -0.0088197709992528 0.443868726491928 0.0100575760006905 0.444070249795914
0.0125500000193715 0.0516499967500567 0.00564999974519014 16 0.000454760156571865 0.442348122596741 -0.0156182451173663 0.442624002695084
0.0153500000610948 0.0516499967500567 0.00564999974519014 16 7.3434341175016e-05 0.372470825910568 -0.0319388397037983 0.373837679624557
0.018150000102818 0.0516499967500567 0.00564999974519014 16 -0.000944681873079389 0.268988311290741 -0.0403913110494614 0.272005647420883
0.0209500001445413 0.0516499967500567 0.00564999974519014 16 -0.00313562154769897 0.168972000479698 -0.0417269617319107 0.174076154828072
0.0237500001862645 0.0516499967500567 0.00564999974519014 16 -0.00111039914190769 0.0877594873309135 -0.0384896136820316 0.0958353281021118
0.0265500002279878 0.0516499967500567 0.00564999974519014 16 -0.00219715945422649 0.0238893739879131 -0.0347450375556946 0.0422225929796696
0.029350000269711 0.0516499967500567 0.00564999974519014 16 -0.0070482799783349 -0.0366357043385506 -0.0273603200912476 0.0462648943066597
0.0321500003114343 0.0516499967500567 0.00564999974519014 16 -0.0145077155902982 -0.088631846010685 -0.0229257121682167 0.0926912426948547
0.0349500003531575 0.0516499967500567 0.00564999974519014 16 -0.0184404645115137 -0.115415059030056 -0.0203839242458344 0.118643127381802
-0.0350500006899238 0.0488499967083335 0.00564999974519014 16 -0.0365250185132027 0.235873743891716 -0.0284505132585764 0.240374565124512
-0.0322500006482005 0.0488499967083335 0.00564999974519014 16 -0.0474269799888134 0.206428557634354 -0.0191380716860294 0.212669551372528
-0.0294500006064773 0.0488499967083335 0.00564999974519014 16 -0.069768488407135 0.141929745674133 -0.000118050011224113 0.158150911331177
-0.026650000564754 0.0488499967083335 0.00564999974519014 16 -0.0927184745669365 0.0677049309015274 0.0223736241459846 0.116966888308525
-0.0238500005230308 0.0488499967083335 0.00564999974519014 16 -0.111987218260765 -0.008015226572752 0.0438881106674671 0.120546862483025
-0.0210500004813075 0.0488499967083335 0.00564999974519014 16 -0.12300331145525 -0.082154780626297 0.0608611516654491 0.15994781255722
-0.0182500004395843 0.0488499967083335 0.00564999974519014 16 -0.121368251740932 -0.16516962647438 0.0693236440420151 0.216372415423393
-0.015450000397861 0.0488499967083335 0.00564999974519014 16 -0.101623073220253 -0.253517925739288 0.0624379590153694 0.2801733314991
-0.0126500003561378 0.0488499967083335 0.00564999974519014 16 -0.0605695024132729 -0.338230133056641 0.0331169776618481 0.3452028632164
-0.0098500003144145 0.0488499967083335 0.00564999974519014 16 -0.00704081682488322 -0.393221586942673 -0.0116787040606141 0.393457978963852
-0.00705000027269125 0.0488499967083335 0.00564999974519014 16 0.0472727678716183 -0.396092146635056 -0.0615552924573421 0.403624534606934
-0.004250000230968 0.0488499967083335 0.00564999974519014 16 0.0843015089631081 -0.328032940626144 -0.0957155376672745 0.351957142353058
-0.00145000018924474 0.0488499967083335 0.00564999974519014 16 0.100053414702415 -0.194843143224716 -0.108621761202812 0.244485631585121
0.0013499998524785 0.0488499967083335 0.00564999974519014 16 0.094059482216835 -0.0142387561500072 -0.100826673209667 0.138621598482132
0.00414999989420176 0.0488499967083335 0.00564999974519014 16 0.0766211301088333 0.171836778521538 -0.0806475356221199 0.204701498150826
0.006949999935925 0.0488499967083335 0.00564999974519014 16 0.0526767373085022 0.323971748352051 -0.0591532252728939 0.3335140645504
0.00974999997764826 0.0488499967083335 0.00564999974519014 16 0.0230388883501291 0.406504124403 -0.0346149504184723 0.408625245094299
0.0125500000193715 0.0488499967083335 0.00564999974519014 16 -0.00953527260571718 0.411394089460373 -0.0116066010668874 0.411668211221695
0.0153500000610948 0.0488499967083335 0.00564999974519014 16 -0.0458334796130657 0.353214472532272 0.0161225516349077 0.356540471315384
0.018150000102818 0.0488499967083335 0.00564999974519014 16 -0.0743350312113762 0.260838150978088 0.0405382253229618 0.274236351251602
0.0209500001445413 0.0488499967083335 0.00564999974519014 16 -0.0944037735462189 0.165718168020248 0.0598022639751434 0.199877202510834
0.0237500001862645 0.0488499967083335 0.00564999974519014 16 -0.101010769605637 0.0829071030020714 0.0724788829684258 0.149432092905045
0.0265500002279878 0.0488499967083335 0.00564999974519014 16 -0.10237829387188 0.0152225801721215 0.0811114683747292 0.131499469280243
0.029350000269711 0.0488499967083335 0.00564999974519014 16 -0.102102465927601 -0.0449370481073856 0.0904263854026794 0.143600776791573
0.0321500003114343 0.0488499967083335 0.00564999974519014 16 -0.102793410420418 -0.0931237936019897 0.0973453894257545 0.169453978538513
0.0349500003531575 0.0488499967083335 0.00564999974519014 16 -0.103004530072212 -0.116224728524685 0.100413709878922 0.184935212135315
-0.0350500006899238 0.0460499966666102 0.00564999974519014 16 -0.0669156685471535 0.204170435667038 0.0594360008835793 0.222925797104836
-0.0322500006482005 0.0460499966666102 0.00564999974519014 16 -0.0795745700597763 0.178750604391098 0.0704333782196045 0.207953721284866
-0.0294500006064773 0.0460499966666102 0.00564999974519014 16 -0.105727285146713 0.122946828603745 0.0921170264482498 0.18649323284626
-0.026650000564754 0.0460499966666102 0.00564999974519014 16 -0.132504805922508 0.055398341268301 0.114309065043926 0.183556690812111
-0.0238500005230308 0.0460499966666102 0.00564999974519014 16 -0.154464319348335 -0.0145711451768875 0.131849959492683 0.203607350587845
-0.0210500004813075 0.0460499966666102 0.00564999974519014 16 -0.164612472057343 -0.0829330682754517 0.13907915353775 0.230907276272774
-0.0182500004395843 0.0460499966666102 0.00564999974519014 16 -0.158672899007797 -0.154557257890701 0.132091611623764 0.257901579141617
-0.015450000397861 0.0460499966666102 0.00564999974519014 16 -0.129596203565598 -0.22487635910511 0.103323824703693 0.279357045888901
-0.0126500003561378 0.0460499966666102 0.00564999974519014 16 -0.0763870030641556 -0.286849915981293 0.0486891493201256 0.300813019275665
-0.0098500003144145 0.0460499966666102 0.00564999974519014 16 -0.00782085862010717 -0.321784377098083 -0.0212688017636538 0.322581350803375
-0.00705000027269125 0.0460499966666102 0.00564999974519014 16 0.062717080116272 -0.3161940574646 -0.0941763520240784 0.33582928776741
-0.004250000230968 0.0460499966666102 0.00564999974519014 16 0.116111949086189 -0.25846540927887 -0.147072330117226 0.3192438185215
-0.00145000018924474 0.0460499966666102 0.00564999974519014 16 0.144892767071724 -0.15309727191925 -0.173444926738739 0.272975891828537
0.0013499998524785 0.0460499966666102 0.00564999974519014 16 0.143622845411301 -0.0119897564873099 -0.169084429740906 0.222172945737839
0.00414999989420176 0.0460499966666102 0.00564999974519014 16 0.120508447289467 0.135408520698547 -0.142169058322906 0.230368822813034
0.006949999935925 0.0460499966666102 0.00564999974519014 16 0.0811315402388573 0.259139806032181 -0.101889699697495 0.290029793977737
0.00974999997764826 0.0460499966666102 0.00564999974519014 16 0.0325703881680965 0.331638097763062 -0.0526250973343849 0.337363392114639
0.0125500000193715 0.0460499966666102 0.00564999974519014 16 -0.0197520665824413 0.344740599393845 -0.000445367564680055 0.345306277275085
0.0153500000610948 0.0460499966666102 0.00564999974519014 16 -0.0727794170379639 0.30725571513176 0.0539153479039669 0.320327609777451
0.018150000102818 0.0460499966666102 0.00564999974519014 16 -0.115944981575012 0.237709611654282 0.0994407013058662 0.282555401325226
0.0209500001445413 0.0460499966666102 0.00564999974519014 16 -0.14563113451004 0.158580541610718 0.131181061267853 0.25212037563324
0.0237500001862645 0.0460499966666102 0.00564999974519014 16 -0.156015917658806 0.081856831908226 0.1470056027174 0.229460567235947
0.0265500002279878 0.0460499966666102 0.00564999974519014 16 -0.153953418135643 0.0135878445580602 0.153744131326675 0.217998951673508
0.029350000269711 0.0460499966666102 0.00564999974519014 16 -0.145382255315781 -0.0473272763192654 0.156931832432747 0.219096943736076
0.0321500003114343 0.0460499966666102 0.00564999974519014 16 -0.137297809123993 -0.0945296958088875 0.158267959952354 0.229859307408333
0.0349500003531575 0.0460499966666102 0.00564999974519014 16 -0.133223876357079 -0.116302132606506 0.157782539725304 0.237002357840538
-0.0350500006899238 0.043249996624887 0.00564999974519014 16 -0.0591929517686367 0.163770720362663 0.103173330426216 0.202408969402313
-0.0322500006482005 0.043249996624887 0.00564999974519014 16 -0.0715151056647301 0.142236411571503 0.114469088613987 0.196083605289459
-0.0294500006064773 0.043249996624887 0.00564999974519014 16 -0.0972831174731255 0.0954433307051659 0.135058343410492 0.191870242357254
-0.026650000564754 0.043249996624887 0.00564999974519014 16 -0.123908668756485 0.037138320505619 0.15295597910881 0.200320094823837
-0.0238500005230308 0.043249996624887 0.00564999974519014 16 -0.144752755761147 -0.0236757602542639 0.161757200956345 0.218355894088745
-0.0210500004813075 0.043249996624887 0.00564999974519014 16 -0.153095290064812 -0.0827131792902946 0.158340230584145 0.235268488526344
-0.0182500004395843 0.043249996624887 0.00564999974519014 16 -0.145318925380707 -0.140806436538696 0.139492377638817 0.245768517255783
-0.015450000397861 0.043249996624887 0.00564999974519014 16 -0.116101324558258 -0.192747443914413 0.101116366684437 0.246689319610596
-0.0126500003561378 0.043249996624887 0.00564999974519014 16 -0.0664624124765396 -0.233386605978012 0.0406771712005138 0.24605119228363
-0.0098500003144145 0.043249996624887 0.00564999974519014 16 -0.00390307628549635 -0.250507146120071 -0.0306059513241053 0.252400070428848
-0.00705000027269125 0.043249996624887 0.00564999974519014 16 0.0588559322059155 -0.237958908081055 -0.100460335612297 0.264916479587555
-0.004250000230968 0.043249996624887 0.00564999974519014 16 0.106324471533298 -0.190356940031052 -0.149822652339935 0.264551490545273
-0.00145000018924474 0.043249996624887 0.00564999974519014 16 0.130651563405991 -0.111945427954197 -0.173059806227684 0.244031369686127
0.0013499998524785 0.043249996624887 0.00564999974519014 16 0.127541244029999 -0.00968659017235041 -0.167778626084328 0.210974559187889
0.00414999989420176 0.043249996624887 0.00564999974519014 16 0.104570664465427 0.098339281976223 -0.141254335641861 0.201391234993935
0.006949999935925 0.043249996624887 0.00564999974519014 16 0.0666650757193565 0.192308396100998 -0.0992899015545845 0.226462438702583
0.00974999997764826 0.043249996624887 0.00564999974519014 16 0.0209260452538729 0.252503216266632 -0.046173095703125 0.257541716098785
0.0125500000193715 0.043249996624887 0.00564999974519014 16 -0.0297241881489754 0.271633923053741 0.0146300960332155 0.273646771907806
0.0153500000610948 0.043249996624887 0.00564999974519014 16 -0.0808822736144066 0.253755867481232 0.0763570666313171 0.277063846588135
0.018150000102818 0.043249996624887 0.00564999974519014 16 -0.123953722417355 0.208290234208107 0.127975478768349 0.274093180894852
0.0209500001445413 0.043249996624887 0.00564999974519014 16 -0.153246402740479 0.148743331432343 0.161660775542259 0.267849296331406
0.0237500001862645 0.043249996624887 0.00564999974519014 16 -0.162633389234543 0.0832095295190811 0.175420224666595 0.253270000219345
0.0265500002279878 0.043249996624887 0.00564999974519014 16 -0.156514167785645 0.0193565003573895 0.175448402762413 0.235909938812256
0.029350000269711 0.043249996624887 0.00564999974519014 16 -0.141043737530708 -0.0386315360665321 0.168572455644608 0.223164528608322
0.0321500003114343 0.043249996624887 0.00564999974519014 16 -0.126148670911789 -0.0827438235282898 0.160872682929039 0.220544889569283
0.0349500003531575 0.043249996624887 0.00564999974519014 16 -0.119020849466324 -0.102119103074074 0.157080665230751 0.221965342760086
-0.0350500006899238 0.0404499965831637 0.00564999974519014 16 -0.0356825850903988 0.119494266808033 0.111997790634632 0.1676175147295
-0.0322500006482005 0.0404499965831637 0.00564999974519014 16 -0.0459854118525982 0.102258175611496 0.120540492236614 0.164625033736229
-0.0294500006064773 0.0404499965831637 0.00564999974519014 16 -0.0675520151853561 0.0643092170357704 0.134900406002998 0.164003252983093
-0.026650000564754 0.0404499965831637 0.00564999974519014 16 -0.0892964899539948 0.0159050691872835 0.144646987318993 0.170732498168945
-0.0238500005230308 0.0404499965831637 0.00564999974519014 16 -0.104846797883511 -0.0348565094172955 0.143903970718384 0.181428164243698
-0.0210500004813075 0.0404499965831637 0.00564999974519014 16 -0.109716951847076 -0.0833147838711739 0.13317346572876 0.191609859466553
-0.0182500004395843 0.0404499965831637 0.00564999974519014 16 -0.101435996592045 -0.128310412168503 0.109939813613892 0.197077617049217
-0.015450000397861 0.0404499965831637 0.00564999974519014 16 -0.0772004798054695 -0.164994359016418 0.0732059702277184 0.196321591734886
-0.0126500003561378 0.0404499965831637 0.00564999974519014 16 -0.0392651110887527 -0.189263626933098 0.0209919959306717 0.194430276751518
-0.0098500003144145 0.0404499965831637 0.00564999974519014 16 0.00704901944845915 -0.193927362561226 -0.0378974117338657 0.19772133231163
-0.00705000027269125 0.0404499965831637 0.00564999974519014 16 0.0505478158593178 -0.177367672324181 -0.0920428186655045 0.206121936440468
-0.004250000230968 0.0404499965831637 0.00564999974519014 16 0.0822563394904137 -0.138513311743736 -0.129287138581276 0.206560418009758
-0.00145000018924474 0.0404499965831637 0.00564999974519014 16 0.0947108641266823 -0.0809840708971024 -0.142823949456215 0.189544841647148
0.0013499998524785 0.0404499965831637 0.00564999974519014 16 0.0875315070152283 -0.0084839565679431 -0.134442567825317 0.160650387406349
0.00414999989420176 0.0404499965831637 0.00564999974519014 16 0.0661947429180145 0.0680906400084496 -0.108272336423397 0.144017279148102
0.006949999935925 0.0404499965831637 0.00564999974519014 16 0.0354986824095249 0.137206822633743 -0.0693511664867401 0.157782927155495
0.00974999997764826 0.0404499965831637 0.00564999974519014 16 0.000539839034900069 0.186319053173065 -0.0218377206474543 0.187595218420029
0.0125500000193715 0.0404499965831637 0.00564999974519014 16 -0.0384423919022083 0.20978307723999 0.0324049480259418 0.215723991394043
0.0153500000610948 0.0404499965831637 0.00564999974519014 16 -0.0780579894781113 0.207643091678619 0.0847963243722916 0.237484991550446
0.018150000102818 0.0404499965831637 0.00564999974519014 16 -0.112760983407497 0.182383000850677 0.128872856497765 0.250173568725586
0.0209500001445413 0.0404499965831637 0.00564999974519014 16 -0.135915979743004 0.141034185886383 0.155671015381813 0.250194430351257
0.0237500001862645 0.0404499965831637 0.00564999974519014 16 -0.141949728131294 0.0890026018023491 0.164489924907684 0.234793782234192
0.0265500002279878 0.0404499965831637 0.00564999974519014 16 -0.132476568222046 0.0332358367741108 0.157056853175163 0.208138227462769
0.029350000269711 0.0404499965831637 0.00564999974519014 16 -0.11343014985323 -0.0197741165757179 0.141110017895699 0.182124823331833
0.0321500003114343 0.0404499965831637 0.00564999974519014 16 -0.0949782729148865 -0.0612514801323414 0.124059334397316 0.16781935095787
0.0349500003531575 0.0404499965831637 0.00564999974519014 16 -0.0862053260207176 -0.0797026008367538 0.116133332252502 0.165138766169548
-0.0350500006899238 0.0376499965414405 0.00564999974519014 16 -0.015384754166007 0.0811845734715462 0.0988634824752808 0.128847256302834
-0.0322500006482005 0.0376499965414405 0.00564999974519014 16 -0.0230142995715141 0.0673406645655632 0.104896932840347 0.12675878405571
-0.0294500006064773 0.0376499965414405 0.00564999974519014 16 -0.0387169346213341 0.0368440449237823 0.113718643784523 0.125651955604553
-0.026650000564754 0.0376499965414405 0.00564999974519014 16 -0.0542055293917656 -0.00243195588700473 0.117108799517155 0.129068300127983
-0.0238500005230308 0.0376499965414405 0.00564999974519014 16 -0.0641231685876846 -0.0438970290124416 0.110459618270397 0.135055750608444
-0.0210500004813075 0.0376499965414405 0.00564999974519014 16 -0.0655760243535042 -0.0829373672604561 0.0958657115697861 0.142720207571983
-0.0182500004395843 0.0376499965414405 0.00564999974519014 16 -0.0569150298833847 -0.117752410471439 0.0727326944470406 0.149649575352669
-0.015450000397861 0.0376499965414405 0.00564999974519014 16 -0.0375968888401985 -0.143875375390053 0.0413979925215244 0.154361397027969
-0.0126500003561378 0.0376499965414405 0.00564999974519014 16 -0.0105706565082073 -0.157988175749779 0.000547165866009891 0.158342361450195
-0.0098500003144145 0.0376499965414405 0.00564999974519014 16 0.0209705512970686 -0.155936017632484 -0.0454744286835194 0.163779512047768
-0.00705000027269125 0.0376499965414405 0.00564999974519014 16 0.0473077595233917 -0.137963503599167 -0.085024856030941 0.168822914361954