TITLE="DynamicStudio Exported Data"
VARIABLES= "X (m)[m]" "Y (m)[m]" "Z (m)[m]" "Status[-]" "U[-]" "V[-]" "W[-]" "Length[-]"
ZONE T="DynamicStudio Data" F=POINT
-0.0350500006899238 0.0600499968752265 0.00564999974519014 16 -0.339040786027908 0.0494599007070065 0.380276888608932 0.51186466217041
-0.0322500006482005 0.0600499968752265 0.00564999974519014 16 -0.309811055660248 0.0985197797417641 0.346024483442307 0.474786251783371
-0.0294500006064773 0.0600499968752265 0.00564999974519014 16 -0.238951846957207 0.195161670446396 0.26354244351387 0.405759394168854
-0.026650000564754 0.0600499968752265 0.00564999974519014 16 -0.138365507125854 0.278492480516434 0.148852482438087 0.344760984182358
-0.0238500005230308 0.0600499968752265 0.00564999974519014 16 -0.0332401432096958 0.313958019018173 0.03469368070364 0.317613273859024
-0.0210500004813075 0.0600499968752265 0.00564999974519014 16 0.0597364418208599 0.292913198471069 -0.0619209073483944 0.305288016796112
-0.0182500004395843 0.0600499968752265 0.00564999974519014 16 0.126267105340958 0.238090440630913 -0.119839824736118 0.294944107532501
-0.015450000397861 0.0600499968752265 0.00564999974519014 16 0.165929064154625 0.168799355626106 -0.148597061634064 0.27947586774826
-0.0126500003561378 0.0600499968752265 0.00564999974519014 16 0.186722189188004 0.102440901100636 -0.156642854213715 0.26437908411026
-0.0098500003144145 0.0600499968752265 0.00564999974519014 16 0.196419835090637 0.0400717295706272 -0.164008736610413 0.259008437395096
-0.00705000027269125 0.0600499968752265 0.00564999974519014 16 0.203366860747337 -0.021317433565855 -0.175202116370201 0.269273638725281
-0.004250000230968 0.0600499968752265 0.00564999974519014 16 0.201309233903885 -0.0893650203943253 -0.185891970992088 0.288214057683945
-0.00145000018924474 0.0600499968752265 0.00564999974519014 16 0.186625778675079 -0.165518492460251 -0.186635598540306 0.311541974544525
0.0013499998524785 0.0600499968752265 0.00564999974519014 16 0.14518515765667 -0.24298220872879 -0.162021085619926 0.326144009828568
0.00414999989420176 0.0600499968752265 0.00564999974519014 16 0.0726543217897415 -0.304124355316162 -0.101921573281288 0.328874260187149
0.006949999935925 0.0600499968752265 0.00564999974519014 16 -0.030440105125308 -0.32972440123558 -0.00221655960194767 0.331133931875229
0.00974999997764826 0.0600499968752265 0.00564999974519014 16 -0.149737253785133 -0.299681186676025 0.127998620271683 0.358627527952194
0.0125500000193715 0.0600499968752265 0.00564999974519014 16 -0.252071529626846 -0.210185095667839 0.253059238195419 0.414435535669327
0.0153500000610948 0.0600499968752265 0.00564999974519014 16 -0.314086109399796 -0.07143734395504 0.344185084104538 0.471398711204529
0.018150000102818 0.0600499968752265 0.00564999974519014 16 -0.312018185853958 0.0894709676504135 0.367804020643234 0.490550935268402
0.0209500001445413 0.0600499968752265 0.00564999974519014 16 -0.255192935466766 0.232825487852097 0.327428698539734 0.475962907075882
0.0237500001862645 0.0600499968752265 0.00564999974519014 16 -0.159316509962082 0.328468203544617 0.239239156246185 0.436472773551941
0.0265500002279878 0.0600499968752265 0.00564999974519014 16 -0.0538949742913246 0.357153981924057 0.134879991412163 0.385559648275375
0.029350000269711 0.0600499968752265 0.00564999974519014 16 0.0363932512700558 0.334274411201477 0.0468787588179111 0.339501798152924
0.0321500003114343 0.0600499968752265 0.00564999974519014 16 0.0973427519202232 0.291399985551834 -0.0125897563993931 0.307486683130264
0.0349500003531575 0.0600499968752265 0.00564999974519014 16 0.12041949480772 0.26794421672821 -0.0339609868824482 0.29571658372879
-0.0350500006899238 0.0572499968335032 0.00564999974519014 16 -0.277970343828201 0.0557357892394066 0.322800099849701 0.429620623588562
-0.0322500006482005 0.0572499968335032 0.00564999974519014 16 -0.25287726521492 0.109268665313721 0.29258930683136 0.401864469051361
-0.0294500006064773 0.0572499968335032 0.00564999974519014 16 -0.194076836109161 0.212748154997826 0.223627641797066 0.364605158567429
-0.026650000564754 0.0572499968335032 0.00564999974519014 16 -0.110988765954971 0.303082168102264 0.127615228295326 0.34707772731781
-0.0238500005230308 0.0572499968335032 0.00564999974519014 16 -0.0236678551882505 0.340161144733429 0.0304238256067038 0.342338114976883
-0.0210500004813075 0.0572499968335032 0.00564999974519014 16 0.053025271743536 0.316466063261032 -0.052201334387064 0.325096040964127
-0.0182500004395843 0.0572499968335032 0.00564999974519014 16 0.107879750430584 0.255165934562683 -0.102292768657207 0.295315951108932
-0.015450000397861 0.0572499968335032 0.00564999974519014 16 0.139732182025909 0.179672956466675 -0.125107437372208 0.259729325771332
-0.0126500003561378 0.0572499968335032 0.00564999974519014 16 0.155762925744057 0.108712755143642 -0.128737524151802 0.229464381933212
-0.0098500003144145 0.0572499968335032 0.00564999974519014 16 0.162866994738579 0.043291125446558 -0.131185054779053 0.213563323020935
-0.00705000027269125 0.0572499968335032 0.00564999974519014 16 0.168312057852745 -0.0203999523073435 -0.138153776526451 0.218704298138618
-0.004250000230968 0.0572499968335032 0.00564999974519014 16 0.167248219251633 -0.0924634113907814 -0.1470095962286 0.241108417510986
-0.00145000018924474 0.0572499968335032 0.00564999974519014 16 0.156812325119972 -0.173164948821068 -0.149708718061447 0.277468740940094
0.0013499998524785 0.0572499968335032 0.00564999974519014 16 0.124906726181507 -0.25687113404274 -0.134018927812576 0.315508395433426
0.00414999989420176 0.0572499968335032 0.00564999974519014 16 0.0674705803394318 -0.323620021343231 -0.08986796438694 0.342576205730438
0.006949999935925 0.0572499968335032 0.00564999974519014 16 -0.016932649537921 -0.353541016578674 -0.0119719887152314 0.354148685932159
0.00974999997764826 0.0572499968335032 0.00564999974519014 16 -0.116065002977848 -0.323803395032883 0.0945449471473694 0.356733053922653
0.0125500000193715 0.0572499968335032 0.00564999974519014 16 -0.202822610735893 -0.229462504386902 0.199383646249771 0.365436583757401
0.0153500000610948 0.0572499968335032 0.00564999974519014 16 -0.256314009428024 -0.0800539031624794 0.27921062707901 0.387381047010422
0.018150000102818 0.0572499968335032 0.00564999974519014 16 -0.257190316915512 0.0939168930053711 0.304129213094711 0.409220993518829
0.0209500001445413 0.0572499968335032 0.00564999974519014 16 -0.211849987506866 0.250004291534424 0.277106761932373 0.429151177406311
0.0237500001862645 0.0572499968335032 0.00564999974519014 16 -0.133414059877396 0.352466344833374 0.208427354693413 0.43066668510437
0.0265500002279878 0.0572499968335032 0.00564999974519014 16 -0.0465362966060638 0.381754606962204 0.124856933951378 0.404340773820877
0.029350000269711 0.0572499968335032 0.00564999974519014 16 0.0271723587065935 0.354181170463562 0.053027082234621 0.35915806889534
0.0321500003114343 0.0572499968335032 0.00564999974519014 16 0.0764414891600609 0.305588513612747 0.00441234977915883 0.315035104751587
0.0349500003531575 0.0572499968335032 0.00564999974519014 16 0.0947702005505562 0.278783053159714 -0.012626014649868 0.294721573591232
-0.0350500006899238 0.05444999679178 0.00564999974519014 16 -0.12715956568718 0.0667736008763313 0.166141644120216 0.219616293907166
-0.0322500006482005 0.05444999679178 0.00564999974519014 16 -0.114643983542919 0.127605691552162 0.151894748210907 0.229125440120697
-0.0294500006064773 0.05444999679178 0.00564999974519014 16 -0.0846378952264786 0.242398992180824 0.1171899959445 0.282231003046036
-0.026650000564754 0.05444999679178 0.00564999974519014 16 -0.0421329252421856 0.342776954174042 0.0655356347560883 0.351519763469696
-0.0238500005230308 0.05444999679178 0.00564999974519014 16 0.00205421494320035 0.380928337574005 0.0123005332425237 0.381132423877716
-0.0210500004813075 0.05444999679178 0.00564999974519014 16 0.039350587874651 0.35247465968132 -0.0335195176303387 0.356244891881943
-0.0182500004395843 0.05444999679178 0.00564999974519014 16 0.0645652785897255 0.28180792927742 -0.0590739659965038 0.295083224773407
-0.015450000397861 0.05444999679178 0.00564999974519014 16 0.0770647749304771 0.198096469044685 -0.0666412860155106 0.222760528326035
-0.0126500003561378 0.05444999679178 0.00564999974519014 16 0.0813044980168343 0.120517536997795 -0.0589737631380558 0.15688468515873
-0.0098500003144145 0.05444999679178 0.00564999974519014 16 0.0820566043257713 0.0495829582214355 -0.0516157522797585 0.108884997665882
-0.00705000027269125 0.05444999679178 0.00564999974519014 16 0.0842406153678894 -0.0192755050957203 -0.0497327223420143 0.0997064188122749
-0.004250000230968 0.05444999679178 0.00564999974519014 16 0.0856915786862373 -0.0988818630576134 -0.0565938018262386 0.142560616135597
-0.00145000018924474 0.05444999679178 0.00564999974519014 16 0.0860039815306664 -0.18703655898571 -0.067189134657383 0.21654962003231
0.0013499998524785 0.05444999679178 0.00564999974519014 16 0.0759288147091866 -0.279085010290146 -0.0736021250486374 0.298447489738464
0.00414999989420176 0.05444999679178 0.00564999974519014 16 0.0526826083660126 -0.352456241846085 -0.0656312480568886 0.362364888191223
0.006949999935925 0.05444999679178 0.00564999974519014 16 0.0109548168256879 -0.387740105390549 -0.035726472735405 0.389536619186401
0.00974999997764826 0.05444999679178 0.00564999974519014 16 -0.0417791754007339 -0.35872957110405 0.0178610123693943 0.361595660448074
0.0125500000193715 0.05444999679178 0.00564999974519014 16 -0.0905775353312492 -0.258312523365021 0.0755858719348907 0.283976882696152
0.0153500000610948 0.05444999679178 0.00564999974519014 16 -0.122382469475269 -0.0938492193818092 0.126629143953323 0.199549704790115
0.018150000102818 0.05444999679178 0.00564999974519014 16 -0.125927492976189 0.0993650779128075 0.149964362382889 0.219591587781906
0.0209500001445413 0.05444999679178 0.00564999974519014 16 -0.105002641677856 0.27455922961235 0.150271326303482 0.330136030912399
0.0237500001862645 0.05444999679178 0.00564999974519014 16 -0.0669390857219696 0.388404577970505 0.127342060208321 0.41419193148613
0.0265500002279878 0.05444999679178 0.00564999974519014 16 -0.02537851780653 0.420308858156204 0.0948975384235382 0.431635439395905
0.029350000269711 0.05444999679178 0.00564999974519014 16 0.00757966889068484 0.387224555015564 0.0651334300637245 0.39273738861084
0.0321500003114343 0.05444999679178 0.00564999974519014 16 0.0288019347935915 0.330413579940796 0.0436500385403633 0.334526568651199
0.0349500003531575 0.05444999679178 0.00564999974519014 16 0.0358065217733383 0.299019992351532 0.0367711149156094 0.303392767906189
-0.0350500006899238 0.0516499967500567 0.00564999974519014 16 0.0480747260153294 0.0816428661346436 -0.0106761800125241 0.0953452587127686
-0.0322500006482005 0.0516499967500567 0.00564999974519014 16 0.0480182766914368 0.141602918505669 -0.0108385980129242 0.149915367364883
-0.0294500006064773 0.0516499967500567 0.00564999974519014 16 0.0453421287238598 0.255226492881775 -0.00770730478689075 0.259337365627289
-0.026650000564754 0.0516499967500567 0.00564999974519014 16 0.0407660491764545 0.356825470924377 -0.00715124886482954 0.359217792749405
-0.0238500005230308 0.0516499967500567 0.00564999974519014 16 0.0337028168141842 0.395949333906174 -0.00607173144817352 0.397427499294281
-0.0210500004813075 0.0516499967500567 0.00564999974519014 16 0.0241594798862934 0.368870198726654 -0.00624355999752879 0.369713246822357
-0.0182500004395843 0.0516499967500567 0.00564999974519014 16 0.0126166483387351 0.296221703290939 0.000669471570290625 0.296491026878357
-0.015450000397861 0.0516499967500567 0.00564999974519014 16 0.000789982557762414 0.209610596299171 0.0122782727703452 0.209971383213997
-0.0126500003561378 0.0516499967500567 0.00564999974519014 16 -0.010600627399981 0.127395451068878 0.0337484255433083 0.132215470075607
-0.0098500003144145 0.0516499967500567 0.00564999974519014 16 -0.0185128226876259 0.0519396029412746 0.0514851622283459 0.0754398331046104
-0.00705000027269125 0.0516499967500567 0.00564999974519014 16 -0.0216304305940866 -0.0214686673134565 0.0638079643249512 0.0707123428583145
-0.004250000230968 0.0516499967500567 0.00564999974519014 16 -0.0186247210949659 -0.105361469089985 0.059306800365448 0.122332401573658
-0.00145000018924474 0.0516499967500567 0.00564999974519014 16 -0.00651659443974495 -0.196207895874977 0.038700133562088 0.200094237923622
0.0013499998524785 0.0516499967500567 0.00564999974519014 16 0.0101258587092161 -0.289291352033615 0.00322770141065121 0.28948649764061
0.00414999989420176 0.0516499967500567 0.00564999974519014 16 0.0290432721376419 -0.362017840147018 -0.0365321449935436 0.365013718605042
0.006949999935925 0.0516499967500567 0.00564999974519014 16 0.0404387377202511 -0.395799517631531 -0.0681476220488548 0.403654128313065
0.00974999997764826 0.0516499967500567 0.00564999974519014 16 0.0450116544961929 -0.365673065185547 -0.0831445604562759 0.377698123455048
0.0125500000193715 0.0516499967500567 0.00564999974519014 16 0.0444503240287304 -0.26436060667038 -0.0860443785786629 0.281542181968689
0.0153500000610948 0.0516499967500567 0.00564999974519014 16 0.0411828421056271 -0.0984776318073273 -0.0739300101995468 0.129844203591347
0.018150000102818 0.0516499967500567 0.00564999974519014 16 0.0363955162465572 0.0966933146119118 -0.0532604828476906 0.116236440837383
0.0209500001445413 0.0516499967500567 0.00564999974519014 16 0.0275440737605095 0.275883674621582 -0.0190268028527498 0.277907341718674
0.0237500001862645 0.0516499967500567 0.00564999974519014 16 0.0150226689875126 0.393893480300903 0.017171947285533 0.394553691148758
0.0265500002279878 0.0516499967500567 0.00564999974519014 16 -0.0014087085146457 0.430085122585297 0.0513659007847309 0.43314391374588
0.029350000269711 0.0516499967500567 0.00564999974519014 16 -0.0201632846146822 0.399500131607056 0.0781773403286934 0.407576531171799
0.0321500003114343 0.0516499967500567 0.00564999974519014 16 -0.0348713137209415 0.34329542517662 0.0948619246482849 0.35786384344101
0.0349500003531575 0.0516499967500567 0.00564999974519014 16 -0.0422393120825291 0.311819165945053 0.102902792394161 0.331065475940704
-0.0350500006899238 0.0488499967083335 0.00564999974519014 16 0.188370436429977 0.0853189677000046 -0.165814861655235 0.26506096124649
-0.0322500006482005 0.0488499967083335 0.00564999974519014 16 0.178381949663162 0.138927325606346 -0.152925357222557 0.272959858179092
-0.0294500006064773 0.0488499967083335 0.00564999974519014 16 0.151658475399017 0.239856600761414 -0.119978010654449 0.308100968599319
-0.026650000564754 0.0488499967083335 0.00564999974519014 16 0.112147852778435 0.330645799636841 -0.0780707821249962 0.357769250869751
-0.0238500005230308 0.0488499967083335 0.00564999974519014 16 0.0652204155921936 0.366704612970352 -0.0305211581289768 0.373707801103592
-0.0210500004813075 0.0488499967083335 0.00564999974519014 16 0.0178859420120716 0.344810515642166 0.0121285635977983 0.345487058162689
-0.0182500004395843 0.0488499967083335 0.00564999974519014 16 -0.0256371274590492 0.28065687417984 0.0535795539617538 0.286873340606689
-0.015450000397861 0.0488499967083335 0.00564999974519014 16 -0.0598057359457016 0.202054664492607 0.0869148299098015 0.227940782904625
-0.0126500003561378 0.0488499967083335 0.00564999974519014 16 -0.0864360183477402 0.123020365834236 0.122327223420143 0.193827614188194
-0.0098500003144145 0.0488499967083335 0.00564999974519014 16 -0.102938532829285 0.0484257526695728 0.147431015968323 0.186218425631523
-0.00705000027269125 0.0488499967083335 0.00564999974519014 16 -0.110417984426022 -0.0257842354476452 0.163788735866547 0.199207693338394
-0.004250000230968 0.0488499967083335 0.00564999974519014 16 -0.104596465826035 -0.107013039290905 0.154293775558472 0.214939013123512
-0.00145000018924474 0.0488499967083335 0.00564999974519014 16 -0.0810785442590714 -0.191801011562347 0.118085026741028 0.239385530352592
0.0013499998524785 0.0488499967083335 0.00564999974519014 16 -0.0413247272372246 -0.273605495691299 0.0537856966257095 0.281887590885162
0.00414999989420176 0.0488499967083335 0.00564999974519014 16 0.0106187108904123 -0.334598541259766 -0.0255571212619543 0.335741132497787
0.006949999935925 0.0488499967083335 0.00564999974519014 16 0.0635815113782883 -0.359401166439056 -0.104972280561924 0.379777550697327
0.00974999997764826 0.0488499967083335 0.00564999974519014 16 0.112527899444103 -0.329629361629486 -0.173533588647842 0.389142572879791
0.0125500000193715 0.0488499967083335 0.00564999974519014 16 0.151575580239296 -0.238616660237312 -0.225221931934357 0.361438781023026
0.0153500000610948 0.0488499967083335 0.00564999974519014 16 0.173516646027565 -0.0923419818282127 -0.247806325554848 0.316295802593231
0.018150000102818 0.0488499967083335 0.00564999974519014 16 0.171388953924179 0.0804938599467278 -0.233479902148247 0.300609886646271
0.0209500001445413 0.0488499967083335 0.00564999974519014 16 0.140675142407417 0.241835922002792 -0.175935849547386 0.330495893955231
0.0237500001862645 0.0488499967083335 0.00564999974519014 16 0.0873865559697151 0.352891445159912 -0.09215097874403 0.375047445297241
0.0265500002279878 0.0488499967083335 0.00564999974519014 16 0.0220785178244114 0.394084215164185 -0.00041451383731328 0.394702434539795
0.029350000269711 0.0488499967083335 0.00564999974519014 16 -0.0406733267009258 0.375434905290604 0.0786062479019165 0.385726124048233
0.0321500003114343 0.0488499967083335 0.00564999974519014 16 -0.0861607193946838 0.330828458070755 0.131737381219864 0.366368502378464
0.0349500003531575 0.0488499967083335 0.00564999974519014 16 -0.10536477714777 0.304764747619629 0.1536795347929 0.357212394475937
-0.0350500006899238 0.0460499966666102 0.00564999974519014 16 0.236493274569511 0.0860893577337265 -0.222486048936844 0.335917383432388
-0.0322500006482005 0.0460499966666102 0.00564999974519014 16 0.224098980426788 0.125845953822136 -0.205952271819115 0.329353749752045
-0.0294500006064773 0.0460499966666102 0.00564999974519014 16 0.191407009959221 0.202674031257629 -0.163172513246536 0.323014974594116
-0.026650000564754 0.0460499966666102 0.00564999974519014 16 0.142640680074692 0.273525923490524 -0.107070155441761 0.326537609100342
-0.0238500005230308 0.0460499966666102 0.00564999974519014 16 0.083479642868042 0.304765224456787 -0.041271798312664 0.318675458431244
-0.0210500004813075 0.0460499966666102 0.00564999974519014 16 0.0227991417050362 0.291027039289474 0.020877618342638 0.29266431927681
-0.0182500004395843 0.0460499966666102 0.00564999974519014 16 -0.0347160436213017 0.241429030895233 0.0817111730575562 0.257235109806061
-0.015450000397861 0.0460499966666102 0.00564999974519014 16 -0.0807860046625137 0.176304206252098 0.12910196185112 0.232973963022232
-0.0126500003561378 0.0460499966666102 0.00564999974519014 16 -0.116580903530121 0.105811394751072 0.172181785106659 0.233310356736183
-0.0098500003144145 0.0460499966666102 0.00564999974519014 16 -0.138366162776947 0.0374741703271866 0.198868036270142 0.245148941874504
-0.00705000027269125 0.0460499966666102 0.00564999974519014 16 -0.147596269845963 -0.0313973613083363 0.212060481309891 0.260269284248352
-0.004250000230968 0.0460499966666102 0.00564999974519014 16 -0.138904199004173 -0.102320589125156 0.194628030061722 0.260084509849548
-0.00145000018924474 0.0460499966666102 0.00564999974519014 16 -0.108625553548336 -0.173505336046219 0.145195037126541 0.250968545675278
0.0013499998524785 0.0460499966666102 0.00564999974519014 16 -0.0572331435978413 -0.237248256802559 0.0627565383911133 0.251993536949158
0.00414999989420176 0.0460499966666102 0.00564999974519014 16 0.00819474831223488 -0.28154319524765 -0.0367555506527424 0.284050494432449
0.006949999935925 0.0460499966666102 0.00564999974519014 16 0.0778143554925919 -0.294734179973602 -0.138649523258209 0.334883570671082
0.00974999997764826 0.0460499966666102 0.00564999974519014 16 0.143655896186829 -0.266806036233902 -0.230949521064758 0.380998879671097
0.0125500000193715 0.0460499966666102 0.00564999974519014 16 0.199227899312973 -0.193606406450272 -0.304483324289322 0.412171423435211
0.0153500000610948 0.0460499966666102 0.00564999974519014 16 0.231851503252983 -0.0809769630432129 -0.342387050390244 0.421356469392776
0.018150000102818 0.0460499966666102 0.00564999974519014 16 0.231408819556236 0.0529335662722588 -0.330577880144119 0.406981259584427
0.0209500001445413 0.0460499966666102 0.00564999974519014 16 0.191105648875237 0.180824011564255 -0.263285219669342 0.372206658124924
0.0237500001862645 0.0460499966666102 0.00564999974519014 16 0.119181022047997 0.275796592235565 -0.158175215125084 0.339539796113968
0.0265500002279878 0.0460499966666102 0.00564999974519014 16 0.0311782937496901 0.320368885993958 -0.0393024273216724 0.324273020029068
0.029350000269711 0.0460499966666102 0.00564999974519014 16 -0.052507821470499 0.319015979766846 0.0670043081045151 0.330178499221802
0.0321500003114343 0.0460499966666102 0.00564999974519014 16 -0.11272356659174 0.293758273124695 0.141394019126892 0.344953328371048
0.0349500003531575 0.0460499966666102 0.00564999974519014 16 -0.138254955410957 0.277359038591385 0.172589689493179 0.354724764823914
-0.0350500006899238 0.043249996624887 0.00564999974519014 16 0.206425622105598 0.0793410390615463 -0.20710177719593 0.302981317043304
-0.0322500006482005 0.043249996624887 0.00564999974519014 16 0.196708336472511 0.10776075720787 -0.191233187913895 0.294748514890671
-0.0294500006064773 0.043249996624887 0.00564999974519014 16 0.171584114432335 0.162702322006226 -0.152301415801048 0.281262993812561
-0.026650000564754 0.043249996624887 0.00564999974519014 16 0.133407041430473 0.21384309232235 -0.101970702409744 0.27189028263092
-0.0238500005230308 0.043249996624887 0.00564999974519014 16 0.0845266878604889 0.237204372882843 -0.0400255657732487 0.254975914955139
-0.0210500004813075 0.043249996624887 0.00564999974519014 16 0.0315998457372189 0.227659597992897 0.0214462205767632 0.230840593576431
-0.0182500004395843 0.043249996624887 0.00564999974519014 16 -0.0221920982003212 0.190037101507187 0.0857049524784088 0.20964714884758
-0.015450000397861 0.043249996624887 0.00564999974519014 16 -0.0681721493601799 0.138308852910995 0.137748703360558 0.206764325499535
-0.0126500003561378 0.043249996624887 0.00564999974519014 16 -0.105058498680592 0.0794055312871933 0.182276964187622 0.224872007966042
-0.0098500003144145 0.043249996624887 0.00564999974519014 16 -0.127186149358749 0.0214801020920277 0.205886662006378 0.242954790592194
-0.00705000027269125 0.043249996624887 0.00564999974519014 16 -0.134256631135941 -0.0368415787816048 0.209193497896194 0.251284837722778
-0.004250000230968 0.043249996624887 0.00564999974519014 16 -0.121535241603851 -0.0935640931129456 0.179924041032791 0.23642697930336
-0.00145000018924474 0.043249996624887 0.00564999974519014 16 -0.088544137775898 -0.147675096988678 0.120204858481884 0.209993347525597
0.0013499998524785 0.043249996624887 0.00564999974519014 16 -0.0379413925111294 -0.192502319812775 0.0339038223028183 0.199113428592682
0.00414999989420176 0.043249996624887 0.00564999974519014 16 0.0215050131082535 -0.221219897270203 -0.06270831823349 0.230939477682114
0.006949999935925 0.043249996624887 0.00564999974519014 16 0.0832000151276588 -0.226653903722763 -0.159080892801285 0.289138317108154
0.00974999997764826 0.043249996624887 0.00564999974519014 16 0.141075387597084 -0.204533576965332 -0.244926750659943 0.348891615867615
0.0125500000193715 0.043249996624887 0.00564999974519014 16 0.191774740815163 -0.151898369193077 -0.314239203929901 0.398242324590683
0.0153500000610948 0.043249996624887 0.00564999974519014 16 0.222323000431061 -0.0733482018113136 -0.350648194551468 0.421617895364761
0.018150000102818 0.043249996624887 0.00564999974519014 16 0.222532957792282 0.0221653003245592 -0.340813219547272 0.40763446688652
0.0209500001445413 0.043249996624887 0.00564999974519014 16 0.184737980365753 0.116321489214897 -0.279430776834488 0.354598879814148
0.0237500001862645 0.043249996624887 0.00564999974519014 16 0.116161368787289 0.192961856722832 -0.179858759045601 0.288230657577515
0.0265500002279878 0.043249996624887 0.00564999974519014 16 0.0322488620877266 0.237432196736336 -0.0639597326517105 0.248001784086227
0.029350000269711 0.043249996624887 0.00564999974519014 16 -0.0490066520869732 0.250335425138474 0.0436329506337643 0.258792012929916
0.0321500003114343 0.043249996624887 0.00564999974519014 16 -0.108010835945606 0.243059724569321 0.121814012527466 0.292545765638351
0.0349500003531575 0.043249996624887 0.00564999974519014 16 -0.133865728974342 0.235989078879356 0.155104547739029 0.312519282102585
-0.0350500006899238 0.0404499965831637 0.00564999974519014 16 0.138408064842224 0.0787248387932777 -0.146241798996925 0.216196805238724
-0.0322500006482005 0.0404499965831637 0.00564999974519014 16 0.133032232522964 0.097560703754425 -0.133337289094925 0.212119057774544
-0.0294500006064773 0.0404499965831637 0.00564999974519014 16 0.119298443198204 0.134111016988754 -0.102946929633617 0.2069201618433
-0.026650000564754 0.0404499965831637 0.00564999974519014 16 0.097990557551384 0.168561682105064 -0.0661109313368797 0.205878227949142
-0.0238500005230308 0.0404499965831637 0.00564999974519014 16 0.0681643337011337 0.183306157588959 -0.020446078851819 0.196635603904724
-0.0210500004813075 0.0404499965831637 0.00564999974519014 16 0.033075924962759 0.174385204911232 0.0256888847798109 0.17934362590313
-0.0182500004395843 0.0404499965831637 0.00564999974519014 16 -0.006289501208812 0.143574312329292 0.0774709284305573 0.163263231515884
-0.015450000397861 0.0404499965831637 0.00564999974519014 16 -0.0430640801787376 0.10120152682066 0.121658064424992 0.164002895355225
-0.0126500003561378 0.0404499965831637 0.00564999974519014 16 -0.0736488327383995 0.0522595420479774 0.158528298139572 0.18244569003582
-0.0098500003144145 0.0404499965831637 0.00564999974519014 16 -0.0912672504782677 0.00419506756588817 0.175476849079132 0.197836890816689
-0.00705000027269125 0.0404499965831637 0.00564999974519014 16 -0.0936242640018463 -0.0425773039460182 0.169975221157074 0.198670342564583
-0.004250000230968 0.0404499965831637 0.00564999974519014 16 -0.077960379421711 -0.0857671350240707 0.135672941803932 0.178440377116203
-0.00145000018924474 0.0404499965831637 0.00564999974519014 16 -0.0468868352472782 -0.124601453542709 0.0761643722653389 0.153378322720528
0.0013499998524785 0.0404499965831637 0.00564999974519014 16 -0.00531945656985044 -0.155565395951271 -0.00126141984947026 0.155661433935165
0.00414999989420176 0.0404499965831637 0.00564999974519014 16 0.0387100726366043 -0.174027740955353 -0.0830079838633537 0.196658208966255
0.006949999935925 0.0404499965831637 0.00564999974519014 16 0.0818362757563591 -0.176137998700142 -0.161874741315842 0.252834320068359
0.00974999997764826 0.0404499965831637 0.00564999974519014 16 0.121892593801022 -0.160047143697739 -0.230102986097336 0.305647313594818
0.0125500000193715 0.0404499965831637 0.00564999974519014 16 0.157976999878883 -0.124170862138271 -0.283753365278244 0.347693979740143
0.0153500000610948 0.0404499965831637 0.00564999974519014 16 0.1800267547369 -0.071603499352932 -0.309676945209503 0.365289598703384
0.018150000102818 0.0404499965831637 0.00564999974519014 16 0.179270759224892 -0.00558850215747952 -0.298630267381668 0.34835222363472
0.0209500001445413 0.0404499965831637 0.00564999974519014 16 0.149400934576988 0.0623095445334911 -0.247872710227966 0.296047300100327
0.0237500001862645 0.0404499965831637 0.00564999974519014 16 0.0946303829550743 0.122767068445683 -0.166354611515999 0.227377474308014
0.0265500002279878 0.0404499965831637 0.00564999974519014 16 0.0275138486176729 0.16456238925457 -0.0700720399618149 0.180963769555092
0.029350000269711 0.0404499965831637 0.00564999974519014 16 -0.0397692508995533 0.185998603701591 0.0220473539084196 0.19147627055645
0.0321500003114343 0.0404499965831637 0.00564999974519014 16 -0.0890805944800377 0.191410735249519 0.0914431363344193 0.230076655745506
0.0349500003531575 0.0404499965831637 0.00564999974519014 16 -0.111800938844681 0.191337153315544 0.121309950947762 0.25263699889183
-0.0350500006899238 0.0376499965414405 0.00564999974519014 16 0.0724333524703979 0.0799960270524025 -0.0863908976316452 0.138236537575722
-0.0322500006482005 0.0376499965414405 0.00564999974519014 16 0.0700307041406631 0.0932186990976334 -0.075874425470829 0.139107704162598
-0.0294500006064773 0.0376499965414405 0.00564999974519014 16 0.0638359263539314 0.117766678333282 -0.0527192950248718 0.143956035375595
-0.026650000564754 0.0376499965414405 0.00564999974519014 16 0.0543366819620132 0.140352934598923 -0.0266340132802725 0.152842372655869
-0.0238500005230308 0.0376499965414405 0.00564999974519014 16 0.0394639559090137 0.147240534424782 0.00388046354055405 0.152486845850945
-0.0210500004813075 0.0376499965414405 0.00564999974519014 16 0.0203865822404623 0.136447936296463 0.0339250676333904 0.142072379589081
-0.0182500004395843 0.0376499965414405 0.00564999974519014 16 -0.00299899349920452 0.10847894847393 0.0684758350253105 0.128318414092064
-0.015450000397861 0.0376499965414405 0.00564999974519014 16 -0.0265745166689157 0.0715224668383598 0.0993748381733894 0.125287771224976
-0.0126500003561378 0.0376499965414405 0.00564999974519014 16 -0.0463970750570297 0.029585899785161 0.124608896672726 0.136218175292015
-0.0098500003144145 0.0376499965414405 0.00564999974519014 16 -0.0568534582853317 -0.0111960740759969 0.13444297015667 0.146398708224297
-0.00705000027269125 0.0376499965414405 0.00564999974519014 16 -0.054348099976778 -0.0488010793924332 0.123206377029419 0.143230840563774
-0.004250000230968 0.0376499965414405 0.00564999974519014 16 -0.0377486199140549 -0.0817025899887085 0.0895030274987221 0.126929357647896