TITLE="DynamicStudio Exported Data"
VARIABLES= "X (m)[m]" "Y (m)[m]" "Z (m)[m]" "Status[-]" "U[-]" "V[-]" "W[-]" "Length[-]"
ZONE T="DynamicStudio Data" F=POINT
-0.0350500006899238 0.0600499968752265 0.00564999974519014 16 0.23510305583477 0.172283366322517 -0.249175518751144 0.383462429046631
-0.0322500006482005 0.0600499968752265 0.00564999974519014 16 0.232566148042679 0.149815171957016 -0.241998597979546 0.367552608251572
-0.0294500006064773 0.0600499968752265 0.00564999974519014 16 0.232012212276459 0.101471588015556 -0.227826476097107 0.340633302927017
-0.026650000564754 0.0600499968752265 0.00564999974519014 16 0.229313388466835 0.0499885492026806 -0.206011980772018 0.312288999557495
-0.0238500005230308 0.0600499968752265 0.00564999974519014 16 0.225093394517899 -0.00328438426367939 -0.183683454990387 0.290546774864197
-0.0210500004813075 0.0600499968752265 0.00564999974519014 16 0.21342995762825 -0.062331136316061 -0.162229374051094 0.275237858295441
-0.0182500004395843 0.0600499968752265 0.00564999974519014 16 0.182549372315407 -0.136460110545158 -0.130162909626961 0.262465268373489
-0.015450000397861 0.0600499968752265 0.00564999974519014 16 0.136239215731621 -0.221878111362457 -0.0851251929998398 0.273929417133331
-0.0126500003561378 0.0600499968752265 0.00564999974519014 16 0.0633588433265686 -0.2994264960289 -0.0136843053624034 0.306362271308899
-0.0098500003144145 0.0600499968752265 0.00564999974519014 16 -0.0237142201513052 -0.345247149467468 0.0782785937190056 0.354803472757339
-0.00705000027269125 0.0600499968752265 0.00564999974519014 16 -0.126840308308601 -0.33371514081955 0.183922275900841 0.401598870754242
-0.004250000230968 0.0600499968752265 0.00564999974519014 16 -0.22421982884407 -0.257219046354294 0.288293838500977 0.446709632873535
-0.00145000018924474 0.0600499968752265 0.00564999974519014 16 -0.295919835567474 -0.125931933522224 0.359641879796982 0.482462108135223
0.0013499998524785 0.0600499968752265 0.00564999974519014 16 -0.315265864133835 0.0299282837659121 0.377748548984528 0.492932289838791
0.00414999989420176 0.0600499968752265 0.00564999974519014 16 -0.270377904176712 0.173604786396027 0.317571520805359 0.451768189668655
0.006949999935925 0.0600499968752265 0.00564999974519014 16 -0.173388183116913 0.276956260204315 0.195803061127663 0.380929231643677
0.00974999997764826 0.0600499968752265 0.00564999974519014 16 -0.0483184047043324 0.32515886425972 0.036076981574297 0.330703049898148
0.0125500000193715 0.0600499968752265 0.00564999974519014 16 0.069631852209568 0.323349863290787 -0.113370798528194 0.349652200937271
0.0153500000610948 0.0600499968752265 0.00564999974519014 16 0.165608748793602 0.282932430505753 -0.231298580765724 0.401218205690384
0.018150000102818 0.0600499968752265 0.00564999974519014 16 0.225854828953743 0.219278261065483 -0.301455527544022 0.435854107141495
0.0209500001445413 0.0600499968752265 0.00564999974519014 16 0.257288187742233 0.146211877465248 -0.33433872461319 0.446494698524475
0.0237500001862645 0.0600499968752265 0.00564999974519014 16 0.263070493936539 0.0719238743185997 -0.338403314352036 0.434621602296829
0.0265500002279878 0.0600499968752265 0.00564999974519014 16 0.253693550825119 0.00307341548614204 -0.328407615423203 0.414995700120926
0.029350000269711 0.0600499968752265 0.00564999974519014 16 0.237615242600441 -0.057794451713562 -0.31225860118866 0.396619021892548
0.0321500003114343 0.0600499968752265 0.00564999974519014 16 0.222076788544655 -0.104139529168606 -0.297593981027603 0.38564920425415
0.0349500003531575 0.0600499968752265 0.00564999974519014 16 0.214134767651558 -0.124441087245941 -0.287709504365921 0.37962618470192
-0.0350500006899238 0.0572499968335032 0.00564999974519014 16 0.208912774920464 0.181425824761391 -0.218471005558968 0.352547109127045
-0.0322500006482005 0.0572499968335032 0.00564999974519014 16 0.205857425928116 0.155540898442268 -0.211489483714104 0.333613634109497
-0.0294500006064773 0.0572499968335032 0.00564999974519014 16 0.202583387494087 0.10195530205965 -0.197021037340164 0.300420045852661
-0.026650000564754 0.0572499968335032 0.00564999974519014 16 0.197027981281281 0.0457455739378929 -0.174047484993935 0.266843050718307
-0.0238500005230308 0.0572499968335032 0.00564999974519014 16 0.190280571579933 -0.00923582911491394 -0.150148168206215 0.242562294006348
-0.0210500004813075 0.0572499968335032 0.00564999974519014 16 0.177275598049164 -0.0695914998650551 -0.126937091350555 0.228872537612915
-0.0182500004395843 0.0572499968335032 0.00564999974519014 16 0.149892047047615 -0.145334050059319 -0.0972579717636108 0.23032309114933
-0.015450000397861 0.0572499968335032 0.00564999974519014 16 0.110600046813488 -0.234945520758629 -0.058498278260231 0.266183793544769
-0.0126500003561378 0.0572499968335032 0.00564999974519014 16 0.0527946427464485 -0.31780743598938 -0.00092333258362487 0.322164088487625
-0.0098500003144145 0.0572499968335032 0.00564999974519014 16 -0.0166920088231564 -0.368494659662247 0.0730312243103981 0.376032590866089
-0.00705000027269125 0.0572499968335032 0.00564999974519014 16 -0.100894965231419 -0.358190417289734 0.160475894808769 0.405256301164627
-0.004250000230968 0.0572499968335032 0.00564999974519014 16 -0.184885561466217 -0.277143776416779 0.250100553035736 0.416583299636841
-0.00145000018924474 0.0572499968335032 0.00564999974519014 16 -0.24999076128006 -0.136212974786758 0.315164357423782 0.424709230661392
0.0013499998524785 0.0572499968335032 0.00564999974519014 16 -0.269657790660858 0.033099077641964 0.332726985216141 0.429555743932724
0.00414999989420176 0.0572499968335032 0.00564999974519014 16 -0.231664523482323 0.1900684684515 0.279956370592117 0.410085409879684
0.006949999935925 0.0572499968335032 0.00564999974519014 16 -0.146156013011932 0.302999675273895 0.16881063580513 0.37638732790947
0.00974999997764826 0.0572499968335032 0.00564999974519014 16 -0.036890521645546 0.354664504528046 0.0235232766717672 0.357353001832962
0.0125500000193715 0.0572499968335032 0.00564999974519014 16 0.0655577629804611 0.349609434604645 -0.1119719222188 0.372910588979721
0.0153500000610948 0.0572499968335032 0.00564999974519014 16 0.147640839219093 0.30246290564537 -0.216237232089043 0.400050222873688
0.018150000102818 0.0572499968335032 0.00564999974519014 16 0.198968306183815 0.230714559555054 -0.275230467319489 0.410572052001953
0.0209500001445413 0.0572499968335032 0.00564999974519014 16 0.22496485710144 0.150988981127739 -0.300376147031784 0.404515385627747
0.0237500001862645 0.0572499968335032 0.00564999974519014 16 0.228001683950424 0.071411207318306 -0.299379587173462 0.383030623197556
0.0265500002279878 0.0572499968335032 0.00564999974519014 16 0.217753455042839 -0.000881340296473354 -0.287424981594086 0.360597372055054
0.029350000269711 0.0572499968335032 0.00564999974519014 16 0.200970217585564 -0.0650601983070374 -0.268504589796066 0.341638058423996
0.0321500003114343 0.0572499968335032 0.00564999974519014 16 0.18593667447567 -0.113852024078369 -0.253552496433258 0.334400355815887
0.0349500003531575 0.0572499968335032 0.00564999974519014 16 0.178423345088959 -0.136169046163559 -0.244961231946945 0.332239210605621
-0.0350500006899238 0.05444999679178 0.00564999974519014 16 0.138902395963669 0.19439272582531 -0.1405338793993 0.277186185121536
-0.0322500006482005 0.05444999679178 0.00564999974519014 16 0.134744912385941 0.163872838020325 -0.132656812667847 0.250216573476791
-0.0294500006064773 0.05444999679178 0.00564999974519014 16 0.127719834446907 0.101699165999889 -0.116468250751495 0.200549080967903
-0.026650000564754 0.05444999679178 0.00564999974519014 16 0.117019452154636 0.0368331559002399 -0.0904911682009697 0.152443051338196
-0.0238500005230308 0.05444999679178 0.00564999974519014 16 0.105298697948456 -0.0225985217839479 -0.0642205327749252 0.12539054453373
-0.0210500004813075 0.05444999679178 0.00564999974519014 16 0.089501217007637 -0.0857057645916939 -0.0397641137242317 0.130142733454704
-0.0182500004395843 0.05444999679178 0.00564999974519014 16 0.0686214193701744 -0.163536667823792 -0.0166485384106636 0.17813004553318
-0.015450000397861 0.05444999679178 0.00564999974519014 16 0.0465888977050781 -0.257764995098114 0.0046509294770658 0.26198273897171
-0.0126500003561378 0.05444999679178 0.00564999974519014 16 0.0224103350192308 -0.3467977643013 0.0293525289744139 0.348758488893509
-0.0098500003144145 0.05444999679178 0.00564999974519014 16 -0.00466293981298804 -0.403000831604004 0.059575580060482 0.407407224178314
-0.00705000027269125 0.05444999679178 0.00564999974519014 16 -0.0434038415551186 -0.3940070271492 0.101427912712097 0.409161418676376
-0.004250000230968 0.05444999679178 0.00564999974519014 16 -0.0916815027594566 -0.305494874715805 0.153075471520424 0.353786259889603
-0.00145000018924474 0.05444999679178 0.00564999974519014 16 -0.136707291007042 -0.150148302316666 0.198235481977463 0.283779323101044
0.0013499998524785 0.05444999679178 0.00564999974519014 16 -0.154864802956581 0.039698276668787 0.213894292712212 0.267039000988007
0.00414999989420176 0.05444999679178 0.00564999974519014 16 -0.133786931633949 0.216784462332726 0.179312244057655 0.311524212360382
0.006949999935925 0.05444999679178 0.00564999974519014 16 -0.0788109824061394 0.345480978488922 0.0976029187440872 0.367552191019058
0.00974999997764826 0.05444999679178 0.00564999974519014 16 -0.00948362704366446 0.40420737862587 -0.0091412765905261 0.404421955347061
0.0125500000193715 0.05444999679178 0.00564999974519014 16 0.0538129955530167 0.395301252603531 -0.105341486632824 0.412620574235916
0.0153500000610948 0.05444999679178 0.00564999974519014 16 0.102176547050476 0.336940884590149 -0.172026410698891 0.391870260238647
0.018150000102818 0.05444999679178 0.00564999974519014 16 0.13131545484066 0.250124007463455 -0.202707275748253 0.347701042890549
0.0209500001445413 0.05444999679178 0.00564999974519014 16 0.144682660698891 0.158496484160423 -0.209546476602554 0.299939870834351
0.0237500001862645 0.05444999679178 0.00564999974519014 16 0.142216578125954 0.0708060339093208 -0.197063460946083 0.253126561641693
0.0265500002279878 0.05444999679178 0.00564999974519014 16 0.130030646920204 -0.00570674287155271 -0.177966922521591 0.220483005046844
0.029350000269711 0.05444999679178 0.00564999974519014 16 0.111763529479504 -0.0740268677473068 -0.151684358716011 0.202433213591576
0.0321500003114343 0.05444999679178 0.00564999974519014 16 0.0968697667121887 -0.126198545098305 -0.132530227303505 0.207060575485229
0.0349500003531575 0.05444999679178 0.00564999974519014 16 0.0888565108180046 -0.150067299604416 -0.120220459997654 0.211822167038918
-0.0350500006899238 0.0516499967500567 0.00564999974519014 16 0.0432369783520699 0.197655513882637 -0.0331530496478081 0.205027461051941
-0.0322500006482005 0.0516499967500567 0.00564999974519014 16 0.0367088839411736 0.164385721087456 -0.0263921581208706 0.170489743351936
-0.0294500006064773 0.0516499967500567 0.00564999974519014 16 0.0251159090548754 0.0972307696938515 -0.0135878687724471 0.101337365806103
-0.026650000564754 0.0516499967500567 0.00564999974519014 16 0.00927457492798567 0.0263927858322859 0.00883539021015167 0.0293370243161917
-0.0238500005230308 0.0516499967500567 0.00564999974519014 16 -0.0054158796556294 -0.0367311723530293 0.0319518148899078 0.0489839687943459
-0.0210500004813075 0.0516499967500567 0.00564999974519014 16 -0.0190937221050262 -0.100838392972946 0.0527221225202084 0.115380123257637
-0.0182500004395843 0.0516499967500567 0.00564999974519014 16 -0.0272398497909307 -0.176527798175812 0.0659438669681549 0.190401330590248
-0.015450000397861 0.0516499967500567 0.00564999974519014 16 -0.0250294338911772 -0.266464024782181 0.0659025460481644 0.275631457567215
-0.0126500003561378 0.0516499967500567 0.00564999974519014 16 -0.00980380456894636 -0.351567834615707 0.0536674447357655 0.355775564908981
-0.0098500003144145 0.0516499967500567 0.00564999974519014 16 0.0114646684378386 -0.40408530831337 0.0343134142458439 0.405701607465744
-0.00705000027269125 0.0516499967500567 0.00564999974519014 16 0.0244358833879232 -0.3939129114151 0.023224126547575 0.395352840423584
-0.004250000230968 0.0516499967500567 0.00564999974519014 16 0.0193762313574553 -0.303769797086716 0.0290929973125458 0.305774301290512
-0.00145000018924474 0.0516499967500567 0.00564999974519014 16 0.00138562987558544 -0.147424012422562 0.0475090965628624 0.154896333813667
0.0013499998524785 0.0516499967500567 0.00564999974519014 16 -0.0127522936090827 0.0468311831355095 0.0608822666108608 0.0778616145253181
0.00414999989420176 0.0516499967500567 0.00564999974519014 16 -0.012263641692698 0.229774311184883 0.0518777556717396 0.235876947641373
0.006949999935925 0.0516499967500567 0.00564999974519014 16 0.00238288985565305 0.365022569894791 0.0155477281659842 0.365361303091049
0.00974999997764826 0.0516499967500567 0.00564999974519014 16 0.0197031944990158 0.427163809537888 -0.0336220487952232 0.42893773317337
0.0125500000193715 0.0516499967500567 0.00564999974519014 16 0.0330916084349155 0.416063189506531 -0.0759940221905708 0.424239009618759
0.0153500000610948 0.0516499967500567 0.00564999974519014 16 0.0392215438187122 0.35188415646553 -0.0952324271202087 0.366646975278854
0.018150000102818 0.0516499967500567 0.00564999974519014 16 0.0403291694819927 0.257153064012527 -0.091949000954628 0.276059329509735
0.0209500001445413 0.0516499967500567 0.00564999974519014 16 0.0366883799433708 0.159286856651306 -0.0756379216909409 0.18010950088501
0.0237500001862645 0.0516499967500567 0.00564999974519014 16 0.027772318571806 0.0664846673607826 -0.0524906516075134 0.0891447216272354
0.0265500002279878 0.0516499967500567 0.00564999974519014 16 0.0157861169427633 -0.0133426291868091 -0.0299426913261414 0.0363839529454708
0.029350000269711 0.0516499967500567 0.00564999974519014 16 0.00114237051457167 -0.0843212530016899 -0.00531056290492415 0.0844960436224937
0.0321500003114343 0.0516499967500567 0.00564999974519014 16 -0.00901001691818237 -0.138210609555244 0.0105648189783096 0.138906329870224
0.0349500003531575 0.0516499967500567 0.00564999974519014 16 -0.0140378400683403 -0.163164734840393 0.0184340421110392 0.164801716804504
-0.0350500006899238 0.0488499967083335 0.00564999974519014 16 -0.0455905310809612 0.184236466884613 0.0670294687151909 0.201282188296318
-0.0322500006482005 0.0488499967083335 0.00564999974519014 16 -0.0544897057116032 0.152195081114769 0.0743747875094414 0.177944034337997
-0.0294500006064773 0.0488499967083335 0.00564999974519014 16 -0.0704498440027237 0.0869989767670631 0.0867401510477066 0.141618698835373
-0.026650000564754 0.0488499967083335 0.00564999974519014 16 -0.0892203375697136 0.0161246936768293 0.105098821222782 0.138802140951157
-0.0238500005230308 0.0488499967083335 0.00564999974519014 16 -0.104203075170517 -0.0481816679239273 0.121980212628841 0.167507991194725
-0.0210500004813075 0.0488499967083335 0.00564999974519014 16 -0.113085195422173 -0.11078780144453 0.133935034275055 0.207366317510605
-0.0182500004395843 0.0488499967083335 0.00564999974519014 16 -0.108779512345791 -0.179844573140144 0.134113356471062 0.249325975775719
-0.015450000397861 0.0488499967083335 0.00564999974519014 16 -0.0853953063488007 -0.256141245365143 0.113521099090576 0.292895436286926
-0.0126500003561378 0.0488499967083335 0.00564999974519014 16 -0.0388163737952709 -0.325304180383682 0.0705384388566017 0.335119664669037
-0.0098500003144145 0.0488499967083335 0.00564999974519014 16 0.0206389110535383 -0.363861382007599 0.0117627177387476 0.3646360039711
-0.00705000027269125 0.0488499967083335 0.00564999974519014 16 0.0752028375864029 -0.348967790603638 -0.043162077665329 0.359578847885132
-0.004250000230968 0.0488499967083335 0.00564999974519014 16 0.106829307973385 -0.265186369419098 -0.075469009578228 0.295688837766647
-0.00145000018924474 0.0488499967083335 0.00564999974519014 16 0.11349293589592 -0.125132665038109 -0.0813822373747826 0.187515065073967
0.0013499998524785 0.0488499967083335 0.00564999974519014 16 0.103776268661022 0.0494514517486095 -0.069517694413662 0.134341612458229
0.00414999989420176 0.0488499967083335 0.00564999974519014 16 0.086615726351738 0.215368449687958 -0.0556397214531898 0.238708257675171
0.006949999935925 0.0488499967083335 0.00564999974519014 16 0.0654445886611938 0.341415554285049 -0.0491760224103928 0.351092368364334
0.00974999997764826 0.0488499967083335 0.00564999974519014 16 0.0375983603298664 0.401867210865021 -0.043725561350584 0.405983775854111
0.0125500000193715 0.0488499967083335 0.00564999974519014 16 0.00747276283800602 0.394757181406021 -0.0329548083245754 0.396200835704803
0.0153500000610948 0.0488499967083335 0.00564999974519014 16 -0.0231691617518663 0.335996031761169 -0.00614978838711977 0.336850047111511
0.018150000102818 0.0488499967083335 0.00564999974519014 16 -0.0472374372184277 0.246345937252045 0.0279714092612267 0.252388775348663
0.0209500001445413 0.0488499967083335 0.00564999974519014 16 -0.0654750317335129 0.152545601129532 0.063562698662281 0.177756458520889
0.0237500001862645 0.0488499967083335 0.00564999974519014 16 -0.0781217887997627 0.0632306858897209 0.0936832204461098 0.137396067380905
0.0265500002279878 0.0488499967083335 0.00564999974519014 16 -0.0868970081210136 -0.013762628659606 0.117906965315342 0.147114083170891
0.029350000269711 0.0488499967083335 0.00564999974519014 16 -0.0948712602257729 -0.0824088901281357 0.137256219983101 0.18609419465065
0.0321500003114343 0.0488499967083335 0.00564999974519014 16 -0.0987960919737816 -0.134125247597694 0.149074569344521 0.223547488451004
0.0349500003531575 0.0488499967083335 0.00564999974519014 16 -0.100965835154057 -0.157876834273338 0.153560072183609 0.242280602455139
-0.0350500006899238 0.0460499966666102 0.00564999974519014 16 -0.0893343538045883 0.155729904770851 0.123933635652065 0.218155860900879
-0.0322500006482005 0.0460499966666102 0.00564999974519014 16 -0.0999415144324303 0.1290492862463 0.130278244614601 0.208840727806091
-0.0294500006064773 0.0460499966666102 0.00564999974519014 16 -0.119704984128475 0.0728784799575806 0.141040340065956 0.198828920722008
-0.026650000564754 0.0460499966666102 0.00564999974519014 16 -0.139674007892609 0.00859768874943256 0.153079628944397 0.207403287291527
-0.0238500005230308 0.0460499966666102 0.00564999974519014 16 -0.152333676815033 -0.0529645718634129 0.160968586802483 0.227863296866417
-0.0210500004813075 0.0460499966666102 0.00564999974519014 16 -0.154142662882805 -0.111586600542068 0.163052558898926 0.250594615936279
-0.0182500004395843 0.0460499966666102 0.00564999974519014 16 -0.139627739787102 -0.17036335170269 0.153312012553215 0.268373161554337
-0.015450000397861 0.0460499966666102 0.00564999974519014 16 -0.104485042393208 -0.227805271744728 0.122982114553452 0.279171913862228
-0.0126500003561378 0.0460499966666102 0.00564999974519014 16 -0.04566815122962 -0.273930788040161 0.0673248320817947 0.285755664110184
-0.0098500003144145 0.0460499966666102 0.00564999974519014 16 0.0258623138070107 -0.293681204319 -0.00474310619756579 0.294855922460556
-0.00705000027269125 0.0460499966666102 0.00564999974519014 16 0.0937279462814331 -0.273240327835083 -0.0750707015395164 0.298464089632034
-0.004250000230968 0.0460499966666102 0.00564999974519014 16 0.138280406594276 -0.203363433480263 -0.119820564985275 0.273560106754303
-0.00145000018924474 0.0460499966666102 0.00564999974519014 16 0.154547572135925 -0.0924408137798309 -0.133609518408775 0.224235936999321
0.0013499998524785 0.0460499966666102 0.00564999974519014 16 0.144741371273994 0.0449907928705215 -0.1175631955266 0.191821113228798
0.00414999989420176 0.0460499966666102 0.00564999974519014 16 0.116886809468269 0.177409783005714 -0.0865973457694054 0.229425057768822
0.006949999935925 0.0460499966666102 0.00564999974519014 16 0.0767772123217583 0.28153595328331 -0.0511327795684338 0.296263039112091
0.00974999997764826 0.0460499966666102 0.00564999974519014 16 0.0278904959559441 0.334903389215469 -0.0128669161349535 0.33630895614624
0.0125500000193715 0.0460499966666102 0.00564999974519014 16 -0.0220605097711086 0.335372716188431 0.026519414037466 0.337142109870911
0.0153500000610948 0.0460499966666102 0.00564999974519014 16 -0.0690739452838898 0.291816055774689 0.0739936009049416 0.308873564004898
0.018150000102818 0.0460499966666102 0.00564999974519014 16 -0.105418659746647 0.220310181379318 0.121110498905182 0.27261221408844
0.0209500001445413 0.0460499966666102 0.00564999974519014 16 -0.12969845533371 0.140745595097542 0.164629846811295 0.252455919981003
0.0237500001862645 0.0460499966666102 0.00564999974519014 16 -0.141706839203835 0.0610012300312519 0.194932445883751 0.248597338795662
0.0265500002279878 0.0460499966666102 0.00564999974519014 16 -0.143150046467781 -0.0100568495690823 0.212535843253136 0.256446033716202
0.029350000269711 0.0460499966666102 0.00564999974519014 16 -0.140229612588882 -0.0733083039522171 0.217515110969543 0.26898193359375
0.0321500003114343 0.0460499966666102 0.00564999974519014 16 -0.134225443005562 -0.119638554751873 0.217083513736725 0.281877815723419
0.0349500003531575 0.0460499966666102 0.00564999974519014 16 -0.13140232861042 -0.140728041529655 0.213498041033745 0.287493258714676
-0.0350500006899238 0.043249996624887 0.00564999974519014 16 -0.0854277014732361 0.123934410512447 0.129385024309158 0.19848957657814
-0.0322500006482005 0.043249996624887 0.00564999974519014 16 -0.0971149429678917 0.102559193968773 0.137809693813324 0.19733527302742
-0.0294500006064773 0.043249996624887 0.00564999974519014 16 -0.119147017598152 0.0568474791944027 0.152660027146339 0.201823517680168
-0.026650000564754 0.043249996624887 0.00564999974519014 16 -0.138664826750755 0.00165064260363579 0.164155319333076 0.21488980948925
-0.0238500005230308 0.043249996624887 0.00564999974519014 16 -0.14836972951889 -0.053337287157774 0.168024227023125 0.230413943529129
-0.0210500004813075 0.043249996624887 0.00564999974519014 16 -0.14601731300354 -0.105608001351357 0.163811773061752 0.243533164262772
-0.0182500004395843 0.043249996624887 0.00564999974519014 16 -0.128756880760193 -0.153452664613724 0.147853121161461 0.248971089720726
-0.015450000397861 0.043249996624887 0.00564999974519014 16 -0.0940828174352646 -0.194806173443794 0.115186251699924 0.245089575648308
-0.0126500003561378 0.043249996624887 0.00564999974519014 16 -0.0394492372870445 -0.222060233354568 0.0599450245499611 0.233367517590523
-0.0098500003144145 0.043249996624887 0.00564999974519014 16 0.0246059354394674 -0.228073626756668 -0.00643485924229026 0.229487344622612
-0.00705000027269125 0.043249996624887 0.00564999974519014 16 0.0843640193343163 -0.205303505063057 -0.0691998898983002 0.23249825835228
-0.004250000230968 0.043249996624887 0.00564999974519014 16 0.12182729691267 -0.150492444634438 -0.104721337556839 0.220128193497658
-0.00145000018924474 0.043249996624887 0.00564999974519014 16 0.132590219378471 -0.0682311877608299 -0.11022612452507 0.185433179140091
0.0013499998524785 0.043249996624887 0.00564999974519014 16 0.118242524564266 0.032214593142271 -0.0873103961348534 0.150473192334175
0.00414999989420176 0.043249996624887 0.00564999974519014 16 0.0876857191324234 0.130600452423096 -0.0507731772959232 0.165297240018845
0.006949999935925 0.043249996624887 0.00564999974519014 16 0.0474882125854492 0.211247712373734 -0.0101675456389785 0.21675817668438
0.00974999997764826 0.043249996624887 0.00564999974519014 16 0.00137245515361428 0.257107794284821 0.0320244617760181 0.259098172187805
0.0125500000193715 0.043249996624887 0.00564999974519014 16 -0.0463447123765945 0.266339421272278 0.0736264288425446 0.280188083648682
0.0153500000610948 0.043249996624887 0.00564999974519014 16 -0.0918431729078293 0.241494491696358 0.120183601975441 0.284954130649567
0.018150000102818 0.043249996624887 0.00564999974519014 16 -0.128510192036629 0.192264929413795 0.165203601121902 0.284205734729767
0.0209500001445413 0.043249996624887 0.00564999974519014 16 -0.150454342365265 0.131095409393311 0.205832108855247 0.286686897277832
0.0237500001862645 0.043249996624887 0.00564999974519014 16 -0.157644778490067 0.0647874176502228 0.231899306178093 0.287796050310135
0.0265500002279878 0.043249996624887 0.00564999974519014 16 -0.150767415761948 0.00223345891572535 0.242670953273773 0.285700887441635
0.029350000269711 0.043249996624887 0.00564999974519014 16 -0.13926288485527 -0.0540366806089878 0.238141641020775 0.281114846467972
0.0321500003114343 0.043249996624887 0.00564999974519014 16 -0.126500681042671 -0.0950164347887039 0.229279711842537 0.278567284345627
0.0349500003531575 0.043249996624887 0.00564999974519014 16 -0.121315471827984 -0.113282680511475 0.222486540675163 0.27758002281189
-0.0350500006899238 0.0404499965831637 0.00564999974519014 16 -0.0570230409502983 0.0921583920717239 0.10636530071497 0.151849836111069
-0.0322500006482005 0.0404499965831637 0.00564999974519014 16 -0.0678307861089706 0.0759805366396904 0.113836564123631 0.152750849723816
-0.0294500006064773 0.0404499965831637 0.00564999974519014 16 -0.0884494110941887 0.0407416447997093 0.128901660442352 0.161551281809807
-0.026650000564754 0.0404499965831637 0.00564999974519014 16 -0.105220764875412 -0.00443851109594107 0.13747875392437 0.173180595040321
-0.0238500005230308 0.0404499965831637 0.00564999974519014 16 -0.111520938575268 -0.0507011860609055 0.138611748814583 0.184988513588905
-0.0210500004813075 0.0404499965831637 0.00564999974519014 16 -0.106710024178028 -0.0954232886433601 0.131774395704269 0.194569066166878
-0.0182500004395843 0.0404499965831637 0.00564999974519014 16 -0.0903978869318962 -0.133291348814964 0.117458492517471 0.199336051940918
-0.015450000397861 0.0404499965831637 0.00564999974519014 16 -0.0623481385409832 -0.16277489066124 0.0901968479156494 0.196261122822762
-0.0126500003561378 0.0404499965831637 0.00564999974519014 16 -0.020876070484519 -0.177543178200722 0.045402504503727 0.184441804885864
-0.0098500003144145 0.0404499965831637 0.00564999974519014 16 0.025025486946106 -0.176319897174835 -0.00502739986404777 0.178157955408096
-0.00705000027269125 0.0404499965831637 0.00564999974519014 16 0.0652123242616653 -0.155400097370148 -0.0473226010799408 0.17504645884037
-0.004250000230968 0.0404499965831637 0.00564999974519014 16 0.0858343243598938 -0.114526554942131 -0.0631576776504517 0.156437695026398
-0.00145000018924474 0.0404499965831637 0.00564999974519014 16 0.0838805139064789 -0.0551657490432262 -0.0525388456881046 0.113311655819416
0.0013499998524785 0.0404499965831637 0.00564999974519014 16 0.0628871321678162 0.0170855354517698 -0.020814249292016 0.0684100911021233
0.00414999989420176 0.0404499965831637 0.00564999974519014 16 0.0326386168599129 0.089490033686161 0.0183926336467266 0.0970156416296959
0.006949999935925 0.0404499965831637 0.00564999974519014 16 0.00078824075171724 0.151539519429207 0.0544043779373169 0.161011442542076
0.00974999997764826 0.0404499965831637 0.00564999974519014 16 -0.0312845930457115 0.191592410206795 0.0855488255620003 0.212143763899803
0.0125500000193715 0.0404499965831637 0.00564999974519014 16 -0.0648338422179222 0.207464501261711 0.111878454685211 0.244462132453918
0.0153500000610948 0.0404499965831637 0.00564999974519014 16 -0.098520465195179 0.19869989156723 0.141552329063416 0.263106435537338
0.018150000102818 0.0404499965831637 0.00564999974519014 16 -0.127317979931831 0.168728858232498 0.172598108649254 0.272890836000443
0.0209500001445413 0.0404499965831637 0.00564999974519014 16 -0.142590567469597 0.124176442623138 0.20327615737915 0.27762034535408
0.0237500001862645 0.0404499965831637 0.00564999974519014 16 -0.144108191132545 0.070006288588047 0.22245492041111 0.274142742156982
0.0265500002279878 0.0404499965831637 0.00564999974519014 16 -0.131215527653694 0.0152561860159039 0.225534230470657 0.261373192071915
0.029350000269711 0.0404499965831637 0.00564999974519014 16 -0.113952413201332 -0.0335738100111485 0.212379202246666 0.243346005678177
0.0321500003114343 0.0404499965831637 0.00564999974519014 16 -0.0964411795139313 -0.0687893629074097 0.195331484079361 0.228445321321487
0.0349500003531575 0.0404499965831637 0.00564999974519014 16 -0.0892297476530075 -0.083535335958004 0.185162663459778 0.22186778485775
-0.0350500006899238 0.0376499965414405 0.00564999974519014 16 -0.0322091057896614 0.0656270980834961 0.0809246003627777 0.109055638313293
-0.0322500006482005 0.0376499965414405 0.00564999974519014 16 -0.041066337376833 0.0528532564640045 0.0872938483953476 0.11000057309866
-0.0294500006064773 0.0376499965414405 0.00564999974519014 16 -0.0579125732183456 0.025377219542861 0.101238936185837 0.119361601769924
-0.026650000564754 0.0376499965414405 0.00564999974519014 16 -0.0703718736767769 -0.0104024037718773 0.106848932802677 0.12836317718029
-0.0238500005230308 0.0376499965414405 0.00564999974519014 16 -0.0736389681696892 -0.0471847131848335 0.107534602284431 0.138610199093819
-0.0210500004813075 0.0376499965414405 0.00564999974519014 16 -0.0679131969809532 -0.0835508033633232 0.0998587012290955 0.146849244832993
-0.0182500004395843 0.0376499965414405 0.00564999974519014 16 -0.0543195083737373 -0.113433510065079 0.088584765791893 0.15383443236351
-0.015450000397861 0.0376499965414405 0.00564999974519014 16 -0.0334448777139187 -0.136169791221619 0.0662217885255814 0.155068039894104
-0.0126500003561378 0.0376499965414405 0.00564999974519014 16 -0.0045264819636941 -0.146054491400719 0.0340608283877373 0.150041803717613
-0.0098500003144145 0.0376499965414405 0.00564999974519014 16 0.0251610931009054 -0.144224092364311 0.000716702605132014 0.146404176950455
-0.00705000027269125 0.0376499965414405 0.00564999974519014 16 0.0476089492440224 -0.127774745225906 -0.0202589444816113 0.137852892279625
-0.004250000230968 0.0376499965414405 0.00564999974519014 16 0.053106278181076 -0.0972328335046768 -0.0181163530796766 0.112261757254601