TITLE="DynamicStudio Exported Data"
VARIABLES= "X (m)[m]" "Y (m)[m]" "Z (m)[m]" "Status[-]" "U[-]" "V[-]" "W[-]" "Length[-]"
ZONE T="DynamicStudio Data" F=POINT
-0.0350500006899238 0.0600499968752265 0.00564999974519014 16 0.27457919716835 0.0662850365042686 -0.360212504863739 0.457755923271179
-0.0322500006482005 0.0600499968752265 0.00564999974519014 16 0.270397812128067 0.0539169833064079 -0.351135849952698 0.446450889110565
-0.0294500006064773 0.0600499968752265 0.00564999974519014 16 0.260804355144501 0.0227140039205551 -0.32907971739769 0.420509576797485
-0.026650000564754 0.0600499968752265 0.00564999974519014 16 0.248856291174889 -0.0219933986663818 -0.309299886226654 0.397592216730118
-0.0238500005230308 0.0600499968752265 0.00564999974519014 16 0.232771560549736 -0.0840129107236862 -0.290502816438675 0.381618469953537
-0.0210500004813075 0.0600499968752265 0.00564999974519014 16 0.20176587998867 -0.162465289235115 -0.260632634162903 0.367469489574432
-0.0182500004395843 0.0600499968752265 0.00564999974519014 16 0.144406855106354 -0.248092383146286 -0.203443512320518 0.351841479539871
-0.015450000397861 0.0600499968752265 0.00564999974519014 16 0.0580097250640392 -0.319035530090332 -0.10659646242857 0.341337978839874
-0.0126500003561378 0.0600499968752265 0.00564999974519014 16 -0.0516969226300716 -0.348208487033844 0.0232112407684326 0.352789580821991
-0.0098500003144145 0.0600499968752265 0.00564999974519014 16 -0.164535254240036 -0.314310431480408 0.172088950872421 0.394306361675262
-0.00705000027269125 0.0600499968752265 0.00564999974519014 16 -0.260447114706039 -0.212737515568733 0.307456374168396 0.455652683973312
-0.004250000230968 0.0600499968752265 0.00564999974519014 16 -0.315782308578491 -0.0608800612390041 0.398891806602478 0.512386083602905
-0.00145000018924474 0.0600499968752265 0.00564999974519014 16 -0.317503690719604 0.10352984815836 0.421015918254852 0.537383854389191
0.0013499998524785 0.0600499968752265 0.00564999974519014 16 -0.265097677707672 0.238371506333351 0.37307271361351 0.516024231910706
0.00414999989420176 0.0600499968752265 0.00564999974519014 16 -0.17157281935215 0.313791394233704 0.272893309593201 0.449858903884888
0.006949999935925 0.0600499968752265 0.00564999974519014 16 -0.0645599290728569 0.323753327131271 0.153613299131393 0.364117056131363
0.00974999997764826 0.0600499968752265 0.00564999974519014 16 0.03408582508564 0.281868040561676 0.04277179017663 0.287125170230865
0.0125500000193715 0.0600499968752265 0.00564999974519014 16 0.103878132998943 0.214920192956924 -0.0411579012870789 0.242229908704758
0.0153500000610948 0.0600499968752265 0.00564999974519014 16 0.146862328052521 0.143151104450226 -0.0968705862760544 0.226814225316048
0.018150000102818 0.0600499968752265 0.00564999974519014 16 0.170194163918495 0.0810723081231117 -0.138923779129982 0.23417641222477
0.0209500001445413 0.0600499968752265 0.00564999974519014 16 0.187372982501984 0.024192763492465 -0.180180907249451 0.261072963476181
0.0237500001862645 0.0600499968752265 0.00564999974519014 16 0.200933396816254 -0.0330206155776978 -0.227203518152237 0.305100053548813
0.0265500002279878 0.0600499968752265 0.00564999974519014 16 0.203919291496277 -0.103515535593033 -0.265886336565018 0.350705116987228
0.029350000269711 0.0600499968752265 0.00564999974519014 16 0.192289173603058 -0.179922267794609 -0.279533058404922 0.384038895368576
0.0321500003114343 0.0600499968752265 0.00564999974519014 16 0.171612575650215 -0.249219283461571 -0.273749738931656 0.408044189214706
0.0349500003531575 0.0600499968752265 0.00564999974519014 16 0.159136727452278 -0.281016975641251 -0.262359708547592 0.416086107492447
-0.0350500006899238 0.0572499968335032 0.00564999974519014 16 0.235904663801193 0.0687709823250771 -0.317297130823135 0.401320219039917
-0.0322500006482005 0.0572499968335032 0.00564999974519014 16 0.230811402201653 0.0545531772077084 -0.307266503572464 0.388152897357941
-0.0294500006064773 0.0572499968335032 0.00564999974519014 16 0.220383748412132 0.0214751865714788 -0.28623765707016 0.361886978149414
-0.026650000564754 0.0572499968335032 0.00564999974519014 16 0.207443341612816 -0.0250952672213316 -0.265637904405594 0.337973386049271
-0.0238500005230308 0.0572499968335032 0.00564999974519014 16 0.192656591534615 -0.0886427164077759 -0.249285966157913 0.327288240194321
-0.0210500004813075 0.0572499968335032 0.00564999974519014 16 0.167027428746223 -0.170538157224655 -0.226392030715942 0.328990548849106
-0.0182500004395843 0.0572499968335032 0.00564999974519014 16 0.122129768133163 -0.261105239391327 -0.183696746826172 0.341812998056412
-0.015450000397861 0.0572499968335032 0.00564999974519014 16 0.0526050068438053 -0.337933957576752 -0.106685765087605 0.358257591724396
-0.0126500003561378 0.0572499968335032 0.00564999974519014 16 -0.0366904847323895 -0.371380716562271 0.0025928218383342 0.373197734355927
-0.0098500003144145 0.0572499968335032 0.00564999974519014 16 -0.132364362478256 -0.337114423513412 0.133554428815842 0.386009365320206
-0.00705000027269125 0.0572499968335032 0.00564999974519014 16 -0.216018468141556 -0.229958862066269 0.258894771337509 0.408131778240204
-0.004250000230968 0.0572499968335032 0.00564999974519014 16 -0.268223196268082 -0.0661683157086372 0.348786979913712 0.444943010807037
-0.00145000018924474 0.0572499968335032 0.00564999974519014 16 -0.27470001578331 0.111396513879299 0.377679646015167 0.480115801095963
0.0013499998524785 0.0572499968335032 0.00564999974519014 16 -0.233924776315689 0.258335143327713 0.341708064079285 0.488080143928528
0.00414999989420176 0.0572499968335032 0.00564999974519014 16 -0.155914843082428 0.339616030454636 0.256098687648773 0.453028708696365
0.006949999935925 0.0572499968335032 0.00564999974519014 16 -0.0641797333955765 0.349212646484375 0.149968653917313 0.38543364405632
0.00974999997764826 0.0572499968335032 0.00564999974519014 16 0.0204059556126595 0.302377343177795 0.0499870739877224 0.307159841060638
0.0125500000193715 0.0572499968335032 0.00564999974519014 16 0.080623522400856 0.228106290102005 -0.0260709244757891 0.243335828185081
0.0153500000610948 0.0572499968335032 0.00564999974519014 16 0.116793870925903 0.151427894830704 -0.0738286972045898 0.204992428421974
0.018150000102818 0.0572499968335032 0.00564999974519014 16 0.137319758534431 0.0862518101930618 -0.108810268342495 0.195283815264702
0.0209500001445413 0.0572499968335032 0.00564999974519014 16 0.152988284826279 0.0291241500526667 -0.144256845116615 0.212282061576843
0.0237500001862645 0.0572499968335032 0.00564999974519014 16 0.166788280010223 -0.0293441619724035 -0.190512523055077 0.254900842905045
0.0265500002279878 0.0572499968335032 0.00564999974519014 16 0.171231895685196 -0.102737657725811 -0.230823844671249 0.305213093757629
0.029350000269711 0.0572499968335032 0.00564999974519014 16 0.163023486733437 -0.184225782752037 -0.248742043972015 0.349840521812439
0.0321500003114343 0.0572499968335032 0.00564999974519014 16 0.146124884486198 -0.258709132671356 -0.245402589440346 0.385363906621933
0.0349500003531575 0.0572499968335032 0.00564999974519014 16 0.136033818125725 -0.292843401432037 -0.237160086631775 0.400633692741394
-0.0350500006899238 0.05444999679178 0.00564999974519014 16 0.141653031110764 0.0696038976311684 -0.213565081357956 0.265556633472443
-0.0322500006482005 0.05444999679178 0.00564999974519014 16 0.136229291558266 0.053761325776577 -0.203712731599808 0.25089356303215
-0.0294500006064773 0.05444999679178 0.00564999974519014 16 0.12533837556839 0.0172987282276154 -0.184631884098053 0.223825559020042
-0.026650000564754 0.05444999679178 0.00564999974519014 16 0.111559309065342 -0.0331293419003487 -0.164121672511101 0.201193824410439
-0.0238500005230308 0.05444999679178 0.00564999974519014 16 0.100228451192379 -0.100225165486336 -0.153347387909889 0.208821088075638
-0.0210500004813075 0.05444999679178 0.00564999974519014 16 0.0865860804915428 -0.187029302120209 -0.146723061800003 0.252991616725922
-0.0182500004395843 0.05444999679178 0.00564999974519014 16 0.0681315362453461 -0.284172743558884 -0.136080756783485 0.322356969118118
-0.015450000397861 0.05444999679178 0.00564999974519014 16 0.0370271690189838 -0.367572456598282 -0.104085318744183 0.383815437555313
-0.0126500003561378 0.05444999679178 0.00564999974519014 16 -0.00540352612733841 -0.405563086271286 -0.0439540036022663 0.407973736524582
-0.0098500003144145 0.05444999679178 0.00564999974519014 16 -0.0578364580869675 -0.369486927986145 0.0422158092260361 0.376361310482025
-0.00705000027269125 0.05444999679178 0.00564999974519014 16 -0.109395831823349 -0.254934430122375 0.137740314006805 0.309727966785431
-0.004250000230968 0.05444999679178 0.00564999974519014 16 -0.150289922952652 -0.0745367109775543 0.218068197369576 0.27513000369072
-0.00145000018924474 0.05444999679178 0.00564999974519014 16 -0.165812909603119 0.122031837701797 0.259171992540359 0.330992162227631
0.0013499998524785 0.05444999679178 0.00564999974519014 16 -0.152037397027016 0.288798481225967 0.252247720956802 0.412491023540497
0.00414999989420176 0.05444999679178 0.00564999974519014 16 -0.11134847253561 0.381444483995438 0.204478651285172 0.446889132261276
0.006949999935925 0.05444999679178 0.00564999974519014 16 -0.0586102232336998 0.392848432064056 0.135536715388298 0.419684708118439
0.00974999997764826 0.05444999679178 0.00564999974519014 16 -0.00887868832796812 0.339311212301254 0.0683133602142334 0.346233516931534
0.0125500000193715 0.05444999679178 0.00564999974519014 16 0.027198001742363 0.254230737686157 0.016309779137373 0.256201088428497
0.0153500000610948 0.05444999679178 0.00564999974519014 16 0.0479451976716518 0.169361159205437 -0.0117819411680102 0.176410764455795
0.018150000102818 0.05444999679178 0.00564999974519014 16 0.0623222589492798 0.0987605899572372 -0.0346738770604134 0.121819518506527
0.0209500001445413 0.05444999679178 0.00564999974519014 16 0.0747968181967735 0.04028295353055 -0.0601687096059322 0.104103572666645
0.0237500001862645 0.05444999679178 0.00564999974519014 16 0.0880443081259727 -0.0204654317349195 -0.102221481502056 0.136454626917839
0.0265500002279878 0.05444999679178 0.00564999974519014 16 0.0936703979969025 -0.0987730473279953 -0.140071883797646 0.195321261882782
0.029350000269711 0.05444999679178 0.00564999974519014 16 0.0913922116160393 -0.188865482807159 -0.162485584616661 0.265375733375549
0.0321500003114343 0.05444999679178 0.00564999974519014 16 0.0824760794639587 -0.272615104913712 -0.163725584745407 0.328523010015488
0.0349500003531575 0.05444999679178 0.00564999974519014 16 0.0772195085883141 -0.311170041561127 -0.158971637487411 0.35785698890686
-0.0350500006899238 0.0516499967500567 0.00564999974519014 16 0.0206662565469742 0.0712487995624542 -0.0655666440725327 0.0990074276924133
-0.0322500006482005 0.0516499967500567 0.00564999974519014 16 0.0144335124641657 0.0524266473948956 -0.0581529252231121 0.079615592956543
-0.0294500006064773 0.0516499967500567 0.00564999974519014 16 0.00350135145708919 0.0106099750846624 -0.0450961291790009 0.046459574252367
-0.026650000564754 0.0516499967500567 0.00564999974519014 16 -0.00918020680546761 -0.0442617684602737 -0.0315080061554909 0.0551011338829994
-0.0238500005230308 0.0516499967500567 0.00564999974519014 16 -0.0147603871300817 -0.113505311310291 -0.0308844391256571 0.118554517626762
-0.0210500004813075 0.0516499967500567 0.00564999974519014 16 -0.0125706298276782 -0.19875280559063 -0.0449505895376205 0.204159870743752
-0.0182500004395843 0.0516499967500567 0.00564999974519014 16 -0.000457703485153615 -0.292781800031662 -0.0696983262896538 0.300963848829269
-0.015450000397861 0.0516499967500567 0.00564999974519014 16 0.0143274515867233 -0.371393114328384 -0.0910045355558395 0.38264861702919
-0.0126500003561378 0.0516499967500567 0.00564999974519014 16 0.027385612949729 -0.40690279006958 -0.0923353508114815 0.418145537376404
-0.0098500003144145 0.0516499967500567 0.00564999974519014 16 0.0287752896547318 -0.369173288345337 -0.0655282214283943 0.376046359539032
-0.00705000027269125 0.0516499967500567 0.00564999974519014 16 0.0183472335338593 -0.255748063325882 -0.0126880994066596 0.256719082593918
-0.004250000230968 0.0516499967500567 0.00564999974519014 16 -0.00437824660912156 -0.0743703469634056 0.0501502864062786 0.0898062810301781
-0.00145000018924474 0.0516499967500567 0.00564999974519014 16 -0.0268098916858435 0.124232687056065 0.100942067801952 0.162301674485207
0.0013499998524785 0.0516499967500567 0.00564999974519014 16 -0.0435355342924595 0.297109872102737 0.128210633993149 0.326508164405823
0.00414999989420176 0.0516499967500567 0.00564999974519014 16 -0.0476256124675274 0.395398586988449 0.129729732871056 0.418853253126144
0.006949999935925 0.0516499967500567 0.00564999974519014 16 -0.0434493534266949 0.411571770906448 0.112746588885784 0.428941667079926
0.00974999997764826 0.0516499967500567 0.00564999974519014 16 -0.0369996875524521 0.358890920877457 0.0917705744504929 0.372281461954117
0.0125500000193715 0.0516499967500567 0.00564999974519014 16 -0.0320520773530006 0.271756380796432 0.072517491877079 0.283085942268372
0.0153500000610948 0.0516499967500567 0.00564999974519014 16 -0.0309815667569637 0.183477863669395 0.0689704790711403 0.198446244001389
0.018150000102818 0.0516499967500567 0.00564999974519014 16 -0.025785556063056 0.109247341752052 0.061255007982254 0.127875134348869
0.0209500001445413 0.0516499967500567 0.00564999974519014 16 -0.0186726935207844 0.0481018647551537 0.0481745712459087 0.0705921277403831
0.0237500001862645 0.0516499967500567 0.00564999974519014 16 -0.00748340180143714 -0.0157383158802986 0.0118696484714746 0.0210851710289717
0.0265500002279878 0.0516499967500567 0.00564999974519014 16 -0.000853658479172736 -0.0961824655532837 -0.0236386377364397 0.0990483686327934
0.029350000269711 0.0516499967500567 0.00564999974519014 16 0.00342140393331647 -0.188337028026581 -0.0522113330662251 0.195470109581947
0.0321500003114343 0.0516499967500567 0.00564999974519014 16 0.00416182447224855 -0.272237837314606 -0.0616698451340199 0.279166489839554
0.0349500003531575 0.0516499967500567 0.00564999974519014 16 0.00507830921560526 -0.310727089643478 -0.0646808817982674 0.317428290843964
-0.0350500006899238 0.0488499967083335 0.00564999974519014 16 -0.0860224366188049 0.0655237287282944 0.0746389329433441 0.131393268704414
-0.0322500006482005 0.0488499967083335 0.00564999974519014 16 -0.0927150472998619 0.0455515161156654 0.079142227768898 0.130132675170898
-0.0294500006064773 0.0488499967083335 0.00564999974519014 16 -0.103619158267975 0.000623761734459549 0.0847051590681076 0.133836776018143
-0.026650000564754 0.0488499967083335 0.00564999974519014 16 -0.113214209675789 -0.0565985068678856 0.0869447588920593 0.15355858206749
-0.0238500005230308 0.0488499967083335 0.00564999974519014 16 -0.112585805356503 -0.124538950622082 0.0754972398281097 0.184079721570015
-0.0210500004813075 0.0488499967083335 0.00564999974519014 16 -0.0959688574075699 -0.200822591781616 0.0420218296349049 0.226507321000099
-0.0182500004395843 0.0488499967083335 0.00564999974519014 16 -0.0603427849709988 -0.280433267354965 -0.0111134015023708 0.287067204713821
-0.015450000397861 0.0488499967083335 0.00564999974519014 16 -0.00948571041226387 -0.341818302869797 -0.0759338438510895 0.350279450416565
-0.0126500003561378 0.0488499967083335 0.00564999974519014 16 0.0472075678408146 -0.365492403507233 -0.12924437224865 0.390534728765488
-0.0098500003144145 0.0488499967083335 0.00564999974519014 16 0.0938732549548149 -0.326490223407745 -0.155446141958237 0.373592764139175
-0.00705000027269125 0.0488499967083335 0.00564999974519014 16 0.119814239442348 -0.224813401699066 -0.145086094737053 0.293166309595108
-0.004250000230968 0.0488499967083335 0.00564999974519014 16 0.116119019687176 -0.0647206529974937 -0.103555791079998 0.16851170361042
-0.00145000018924474 0.0488499967083335 0.00564999974519014 16 0.0915428325533867 0.111957982182503 -0.0496340319514275 0.152899369597435
0.0013499998524785 0.0488499967083335 0.00564999974519014 16 0.0524877496063709 0.270238935947418 0.00522550940513611 0.275338619947433
0.00414999989420176 0.0488499967083335 0.00564999974519014 16 0.0128896571695805 0.365087419748306 0.050365824252367 0.368770509958267
0.006949999935925 0.0488499967083335 0.00564999974519014 16 -0.0237081181257963 0.387917101383209 0.0828292071819305 0.397369384765625
0.00974999997764826 0.0488499967083335 0.00564999974519014 16 -0.0541333332657814 0.345600217580795 0.108303263783455 0.366196036338806
0.0125500000193715 0.0488499967083335 0.00564999974519014 16 -0.0771637186408043 0.269194006919861 0.124504424631596 0.306465327739716
0.0153500000610948 0.0488499967083335 0.00564999974519014 16 -0.0935495942831039 0.186615288257599 0.144477382302284 0.253871023654938
0.018150000102818 0.0488499967083335 0.00564999974519014 16 -0.0976050496101379 0.113879688084126 0.148995608091354 0.211411967873573
0.0209500001445413 0.0488499967083335 0.00564999974519014 16 -0.0950641259551048 0.0509130954742432 0.143748968839645 0.179702803492546
0.0237500001862645 0.0488499967083335 0.00564999974519014 16 -0.0858387127518654 -0.0140124810859561 0.113647915422916 0.143110036849976
0.0265500002279878 0.0488499967083335 0.00564999974519014 16 -0.078063003718853 -0.0909859016537666 0.0827061608433723 0.145645380020142
0.029350000269711 0.0488499967083335 0.00564999974519014 16 -0.0690857842564583 -0.176460698246956 0.0522921867668629 0.196585088968277
0.0321500003114343 0.0488499967083335 0.00564999974519014 16 -0.0609630569815636 -0.251565903425217 0.0372325330972672 0.261511296033859
0.0349500003531575 0.0488499967083335 0.00564999974519014 16 -0.0561721734702587 -0.286863148212433 0.0301527250558138 0.293862164020538
-0.0350500006899238 0.0460499966666102 0.00564999974519014 16 -0.140297204256058 0.056065171957016 0.170063570141792 0.227482363581657
-0.0322500006482005 0.0460499966666102 0.00564999974519014 16 -0.146962448954582 0.0360174961388111 0.169798195362091 0.227434933185577
-0.0294500006064773 0.0460499966666102 0.00564999974519014 16 -0.1576878875494 -0.00867965258657932 0.165873661637306 0.229030296206474
-0.026650000564754 0.0460499966666102 0.00564999974519014 16 -0.163332358002663 -0.0646204054355621 0.154073044657707 0.233648791909218
-0.0238500005230308 0.0460499966666102 0.00564999974519014 16 -0.157254502177238 -0.126767799258232 0.130286455154419 0.240361422300339
-0.0210500004813075 0.0460499966666102 0.00564999974519014 16 -0.132073357701302 -0.189345926046371 0.0850521996617317 0.246026694774628
-0.0182500004395843 0.0460499966666102 0.00564999974519014 16 -0.0870225951075554 -0.247201472520828 0.0198054853826761 0.262818872928619
-0.015450000397861 0.0460499966666102 0.00564999974519014 16 -0.022476838901639 -0.285480290651321 -0.0638706758618355 0.293400168418884
-0.0126500003561378 0.0460499966666102 0.00564999974519014 16 0.0504111908376217 -0.292950868606567 -0.14353933930397 0.330098539590836
-0.0098500003144145 0.0460499966666102 0.00564999974519014 16 0.115363493561745 -0.254864037036896 -0.197921022772789 0.342691034078598
-0.00705000027269125 0.0460499966666102 0.00564999974519014 16 0.157180085778236 -0.17164534330368 -0.212420091032982 0.315103143453598
-0.004250000230968 0.0460499966666102 0.00564999974519014 16 0.16408696770668 -0.0470810607075691 -0.185227453708649 0.251893550157547
-0.00145000018924474 0.0460499966666102 0.00564999974519014 16 0.141457721590996 0.0913763642311096 -0.133986130356789 0.21520271897316
0.0013499998524785 0.0460499966666102 0.00564999974519014 16 0.0951394289731979 0.218138560652733 -0.0683044269680977 0.247591271996498
0.00414999989420176 0.0460499966666102 0.00564999974519014 16 0.0415284372866154 0.29967999458313 -0.00229001580737531 0.302552402019501
0.006949999935925 0.0460499966666102 0.00564999974519014 16 -0.0123621141538024 0.327144116163254 0.0568263567984104 0.332272976636887
0.00974999997764826 0.0460499966666102 0.00564999974519014 16 -0.0590898543596268 0.301332086324692 0.108706772327423 0.325744986534119
0.0125500000193715 0.0460499966666102 0.00564999974519014 16 -0.0962696224451065 0.244823053479195 0.146967440843582 0.301339656114578
0.0153500000610948 0.0460499966666102 0.00564999974519014 16 -0.122178465127945 0.176101371645927 0.180818095803261 0.280418366193771
0.018150000102818 0.0460499966666102 0.00564999974519014 16 -0.132150232791901 0.110096670687199 0.193423628807068 0.258839070796967
0.0209500001445413 0.0460499966666102 0.00564999974519014 16 -0.131153255701065 0.047637153416872 0.192257449030876 0.237557157874107
0.0237500001862645 0.0460499966666102 0.00564999974519014 16 -0.121205143630505 -0.0160949341952801 0.166182443499565 0.206316113471985
0.0265500002279878 0.0460499966666102 0.00564999974519014 16 -0.1096166446805 -0.0853817835450172 0.136447250843048 0.194740101695061
0.029350000269711 0.0460499966666102 0.00564999974519014 16 -0.0959008187055588 -0.156028255820274 0.103500507771969 0.210366681218147
0.0321500003114343 0.0460499966666102 0.00564999974519014 16 -0.0822961330413818 -0.213537663221359 0.0822132378816605 0.243166610598564
0.0349500003531575 0.0460499966666102 0.00564999974519014 16 -0.075006440281868 -0.239991739392281 0.0708789154887199 0.261239022016525
-0.0350500006899238 0.043249996624887 0.00564999974519014 16 -0.139436975121498 0.0406110845506191 0.199943020939827 0.247121721506119
-0.0322500006482005 0.043249996624887 0.00564999974519014 16 -0.145875722169876 0.0225758366286755 0.197292268276215 0.246401369571686
-0.0294500006064773 0.043249996624887 0.00564999974519014 16 -0.156482398509979 -0.0175662748515606 0.188586086034775 0.245682775974274
-0.026650000564754 0.043249996624887 0.00564999974519014 16 -0.160160571336746 -0.0681920349597931 0.169212728738785 0.242764309048653
-0.0238500005230308 0.043249996624887 0.00564999974519014 16 -0.151472315192223 -0.121039353311062 0.138738811016083 0.238417372107506
-0.0210500004813075 0.043249996624887 0.00564999974519014 16 -0.124826066195965 -0.169945657253265 0.0895693302154541 0.229097664356232
-0.0182500004395843 0.043249996624887 0.00564999974519014 16 -0.0815583467483521 -0.208164408802986 0.0226265992969275 0.2247134745121
-0.015450000397861 0.043249996624887 0.00564999974519014 16 -0.0221177022904158 -0.228399887681007 -0.06006845459342 0.237200170755386
-0.0126500003561378 0.043249996624887 0.00564999974519014 16 0.0436731539666653 -0.223391860723495 -0.140664517879486 0.267577588558197
-0.0098500003144145 0.043249996624887 0.00564999974519014 16 0.102190673351288 -0.188219502568245 -0.196776255965233 0.290844291448593
-0.00705000027269125 0.043249996624887 0.00564999974519014 16 0.139940738677979 -0.122495956718922 -0.21656921505928 0.285466104745865
-0.004250000230968 0.043249996624887 0.00564999974519014 16 0.146500170230865 -0.0314912982285023 -0.195019036531448 0.245939880609512
-0.00145000018924474 0.043249996624887 0.00564999974519014 16 0.125984594225883 0.0700827986001968 -0.148768290877342 0.207161083817482
0.0013499998524785 0.043249996624887 0.00564999974519014 16 0.083929069340229 0.164328187704086 -0.0868582203984261 0.203941643238068
0.00414999989420176 0.043249996624887 0.00564999974519014 16 0.0349668301641941 0.230392605066299 -0.0225514676421881 0.23411962389946
0.006949999935925 0.043249996624887 0.00564999974519014 16 -0.0148173030465841 0.259332478046417 0.0379735752940178 0.262516438961029
0.00974999997764826 0.043249996624887 0.00564999974519014 16 -0.058984100818634 0.249098867177963 0.0940228030085564 0.272707998752594
0.0125500000193715 0.043249996624887 0.00564999974519014 16 -0.0958689749240875 0.21275582909584 0.139057084918022 0.27164825797081
0.0153500000610948 0.043249996624887 0.00564999974519014 16 -0.122582875192165 0.160961538553238 0.177331149578094 0.269038110971451
0.018150000102818 0.043249996624887 0.00564999974519014 16 -0.13400736451149 0.105011500418186 0.193996354937553 0.258108466863632
0.0209500001445413 0.043249996624887 0.00564999974519014 16 -0.132064312696457 0.0468261502683163 0.194573238492012 0.239775776863098
0.0237500001862645 0.043249996624887 0.00564999974519014 16 -0.119373358786106 -0.0126441083848476 0.171014338731766 0.208939641714096
0.0265500002279878 0.043249996624887 0.00564999974519014 16 -0.102599374949932 -0.0730917602777481 0.141305804252625 0.18930496275425
0.029350000269711 0.043249996624887 0.00564999974519014 16 -0.0846398249268532 -0.129359692335129 0.107799246907234 0.188463553786278
0.0321500003114343 0.043249996624887 0.00564999974519014 16 -0.0680263116955757 -0.172244250774384 0.0847544372081757 0.203663870692253
0.0349500003531575 0.043249996624887 0.00564999974519014 16 -0.0603716596961021 -0.191604167222977 0.073848232626915 0.214033782482147
-0.0350500006899238 0.0404499965831637 0.00564999974519014 16 -0.105730317533016 0.0253821834921837 0.184733331203461 0.214358478784561
-0.0322500006482005 0.0404499965831637 0.00564999974519014 16 -0.111482031643391 0.0101314261555672 0.181156903505325 0.212952375411987
-0.0294500006064773 0.0404499965831637 0.00564999974519014 16 -0.120380386710167 -0.0233159326016903 0.170863091945648 0.21030755341053
-0.026650000564754 0.0404499965831637 0.00564999974519014 16 -0.122205153107643 -0.0662518069148064 0.148294419050217 0.203260019421577
-0.0238500005230308 0.0404499965831637 0.00564999974519014 16 -0.111915893852711 -0.108865901827812 0.114818088710308 0.193804398179054
-0.0210500004813075 0.0404499965831637 0.00564999974519014 16 -0.0880202427506447 -0.146445885300636 0.0675808414816856 0.183742016553879
-0.0182500004395843 0.0404499965831637 0.00564999974519014 16 -0.0526809245347977 -0.170823588967323 0.00819796603173018 0.178950235247612
-0.015450000397861 0.0404499965831637 0.00564999974519014 16 -0.00815224274992943 -0.180237457156181 -0.0608434230089188 0.190404623746872
-0.0126500003561378 0.0404499965831637 0.00564999974519014 16 0.0392406769096851 -0.168996557593346 -0.127770274877548 0.215464413166046
-0.0098500003144145 0.0404499965831637 0.00564999974519014 16 0.0792113840579987 -0.137917995452881 -0.172052800655365 0.234303191304207
-0.00705000027269125 0.0404499965831637 0.00564999974519014 16 0.102774791419506 -0.0860203057527542 -0.185600191354752 0.228931397199631
-0.004250000230968 0.0404499965831637 0.00564999974519014 16 0.102803751826286 -0.0193057172000408 -0.164793282747269 0.195187464356422
-0.00145000018924474 0.0404499965831637 0.00564999974519014 16 0.0830282643437386 0.0547604039311409 -0.125109031796455 0.1598269790411
0.0013499998524785 0.0404499965831637 0.00564999974519014 16 0.0485226660966873 0.123688071966171 -0.0746622681617737 0.152406170964241
0.00414999989420176 0.0404499965831637 0.00564999974519014 16 0.0108272861689329 0.176336705684662 -0.0233735684305429 0.178208261728287
0.006949999935925 0.0404499965831637 0.00564999974519014 16 -0.0262598656117916 0.204596266150475 0.0255320556461811 0.207848727703094
0.00974999997764826 0.0404499965831637 0.00564999974519014 16 -0.0591371953487396 0.206342577934265 0.0720861032605171 0.226430729031563
0.0125500000193715 0.0404499965831637 0.00564999974519014 16 -0.0883986353874207 0.18636192381382 0.112329423427582 0.234868004918098
0.0153500000610948 0.0404499965831637 0.00564999974519014 16 -0.110347427427769 0.150248289108276 0.146449491381645 0.237062349915504
0.018150000102818 0.0404499965831637 0.00564999974519014 16 -0.119673766195774 0.104630000889301 0.163499817252159 0.228038236498833
0.0209500001445413 0.0404499965831637 0.00564999974519014 16 -0.115228906273842 0.0525233075022697 0.165308266878128 0.208238378167152
0.0237500001862645 0.0404499965831637 0.00564999974519014 16 -0.0997182205319405 -0.00224346108734608 0.145955920219421 0.17678202688694
0.0265500002279878 0.0404499965831637 0.00564999974519014 16 -0.0784468725323677 -0.0558892600238323 0.11790619045496 0.152247786521912
0.029350000269711 0.0404499965831637 0.00564999974519014 16 -0.0565210580825806 -0.102014176547527 0.0845241993665695 0.14403423666954
0.0321500003114343 0.0404499965831637 0.00564999974519014 16 -0.0369953848421574 -0.134561985731125 0.0595481470227242 0.151728600263596
0.0349500003531575 0.0404499965831637 0.00564999974519014 16 -0.0284331366419792 -0.148241281509399 0.0476013161242008 0.158271312713623
-0.0350500006899238 0.0376499965414405 0.00564999974519014 16 -0.0712879002094269 0.00905182678252459 0.153682455420494 0.169653177261353
-0.0322500006482005 0.0376499965414405 0.00564999974519014 16 -0.0754918903112411 -0.00323080387897789 0.150346249341965 0.168266028165817
-0.0294500006064773 0.0376499965414405 0.00564999974519014 16 -0.0818163454532623 -0.0297260079532862 0.141188830137253 0.165866926312447
-0.026650000564754 0.0376499965414405 0.00564999974519014 16 -0.0818529427051544 -0.0639340654015541 0.119644790887833 0.158437192440033
-0.0238500005230308 0.0376499965414405 0.00564999974519014 16 -0.0712719857692719 -0.0967943295836449 0.0874245688319206 0.148633420467377
-0.0210500004813075 0.0376499965414405 0.00564999974519014 16 -0.0509067550301552 -0.125555291771889 0.0439436435699463 0.142431288957596
-0.0182500004395843 0.0376499965414405 0.00564999974519014 16 -0.0229130536317825 -0.142420083284378 -0.00727697415277362 0.144434913992882
-0.015450000397861 0.0376499965414405 0.00564999974519014 16 0.00855836924165487 -0.147630870342255 -0.0625840350985527 0.160576716065407
-0.0126500003561378 0.0376499965414405 0.00564999974519014 16 0.0395997352898121 -0.135873377323151 -0.11261210590601 0.180862382054329
-0.0098500003144145 0.0376499965414405 0.00564999974519014 16 0.0627784952521324 -0.109157621860504 -0.143164172768593 0.19066333770752
-0.00705000027269125 0.0376499965414405 0.00564999974519014 16 0.0728756561875343 -0.0665909945964813 -0.148925200104713 0.178672701120377