TITLE="DynamicStudio Exported Data"
VARIABLES= "X (m)[m]" "Y (m)[m]" "Z (m)[m]" "Status[-]" "U[-]" "V[-]" "W[-]" "Length[-]"
ZONE T="DynamicStudio Data" F=POINT
-0.0350500006899238 0.0600499968752265 0.00564999974519014 16 -0.223563313484192 0.372434675693512 0.263303518295288 0.507953643798828
-0.0322500006482005 0.0600499968752265 0.00564999974519014 16 -0.183577001094818 0.37461993098259 0.214335158467293 0.469020426273346
-0.0294500006064773 0.0600499968752265 0.00564999974519014 16 -0.0872656479477882 0.373864114284515 0.0972052663564682 0.396028459072113
-0.026650000564754 0.0600499968752265 0.00564999974519014 16 0.0229713208973408 0.348128587007523 -0.0339092314243317 0.35052964091301
-0.0238500005230308 0.0600499968752265 0.00564999974519014 16 0.123566560447216 0.292822241783142 -0.144909918308258 0.349302798509598
-0.0210500004813075 0.0600499968752265 0.00564999974519014 16 0.188084587454796 0.215364769101143 -0.206980496644974 0.352985441684723
-0.0182500004395843 0.0600499968752265 0.00564999974519014 16 0.220257520675659 0.134256660938263 -0.227109029889107 0.343681156635284
-0.015450000397861 0.0600499968752265 0.00564999974519014 16 0.22531121969223 0.0615035705268383 -0.219098091125488 0.320237129926682
-0.0126500003561378 0.0600499968752265 0.00564999974519014 16 0.216427430510521 -0.00662790331989527 -0.20091301202774 0.295382469892502
-0.0098500003144145 0.0600499968752265 0.00564999974519014 16 0.196546241641045 -0.0772486701607704 -0.175054371356964 0.274302423000336
-0.00705000027269125 0.0600499968752265 0.00564999974519014 16 0.162430107593536 -0.163223803043365 -0.139184698462486 0.269068628549576
-0.004250000230968 0.0600499968752265 0.00564999974519014 16 0.107425391674042 -0.252493500709534 -0.0864212960004807 0.287683546543121
-0.00145000018924474 0.0600499968752265 0.00564999974519014 16 0.0292173903435469 -0.329947113990784 -0.0135605800896883 0.331515669822693
0.0013499998524785 0.0600499968752265 0.00564999974519014 16 -0.0678413510322571 -0.362657278776169 0.0777773782610893 0.377057105302811
0.00414999989420176 0.0600499968752265 0.00564999974519014 16 -0.172652021050453 -0.334398537874222 0.187087342143059 0.420276999473572
0.006949999935925 0.0600499968752265 0.00564999974519014 16 -0.262548834085464 -0.237935081124306 0.28972601890564 0.457696586847305
0.00974999997764826 0.0600499968752265 0.00564999974519014 16 -0.321774065494537 -0.0888083875179291 0.368624061346054 0.497301906347275
0.0125500000193715 0.0600499968752265 0.00564999974519014 16 -0.324516981840134 0.080026313662529 0.385646849870682 0.510332226753235
0.0153500000610948 0.0600499968752265 0.00564999974519014 16 -0.274014830589294 0.23169170320034 0.338448613882065 0.493267297744751
0.018150000102818 0.0600499968752265 0.00564999974519014 16 -0.173127323389053 0.333292484283447 0.234896659851074 0.442982375621796
0.0209500001445413 0.0600499968752265 0.00564999974519014 16 -0.0538776554167271 0.373461365699768 0.102973900735378 0.391126334667206
0.0237500001862645 0.0600499968752265 0.00564999974519014 16 0.058160625398159 0.354605466127396 -0.0186260044574738 0.359825819730759
0.0265500002279878 0.0600499968752265 0.00564999974519014 16 0.141644462943077 0.292915403842926 -0.119500741362572 0.346616506576538
0.029350000269711 0.0600499968752265 0.00564999974519014 16 0.19090148806572 0.209935948252678 -0.181261345744133 0.336707830429077
0.0321500003114343 0.0600499968752265 0.00564999974519014 16 0.214621752500534 0.137405410408974 -0.217749163508415 0.335197597742081
0.0349500003531575 0.0600499968752265 0.00564999974519014 16 0.220188364386559 0.102552339434624 -0.228298783302307 0.333347022533417
-0.0350500006899238 0.0572499968335032 0.00564999974519014 16 -0.186609417200089 0.400404274463654 0.225724622607231 0.496082931756973
-0.0322500006482005 0.0572499968335032 0.00564999974519014 16 -0.152754917740822 0.403407663106918 0.181324064731598 0.467921167612076
-0.0294500006064773 0.0572499968335032 0.00564999974519014 16 -0.0737612470984459 0.40108796954155 0.0807796120643616 0.415737479925156
-0.026650000564754 0.0572499968335032 0.00564999974519014 16 0.0181880481541157 0.370990693569183 -0.0325548462569714 0.372860193252563
-0.0238500005230308 0.0572499968335032 0.00564999974519014 16 0.102381452918053 0.309331357479095 -0.127342656254768 0.349834263324738
-0.0210500004813075 0.0572499968335032 0.00564999974519014 16 0.156035214662552 0.225385025143623 -0.178469285368919 0.327103465795517
-0.0182500004395843 0.0572499968335032 0.00564999974519014 16 0.181110829114914 0.138883993029594 -0.190396755933762 0.297221839427948
-0.015450000397861 0.0572499968335032 0.00564999974519014 16 0.1824901252985 0.0626039505004883 -0.177012100815773 0.261830449104309
-0.0126500003561378 0.0572499968335032 0.00564999974519014 16 0.172784388065338 -0.00788374524563551 -0.154712602496147 0.232061609625816
-0.0098500003144145 0.0572499968335032 0.00564999974519014 16 0.155100360512733 -0.0815779343247414 -0.128380998969078 0.217238947749138
-0.00705000027269125 0.0572499968335032 0.00564999974519014 16 0.127193450927734 -0.171488627791405 -0.0964773073792458 0.234295532107353
-0.004250000230968 0.0572499968335032 0.00564999974519014 16 0.0832046344876289 -0.267535716295242 -0.0546072944998741 0.285447597503662
-0.00145000018924474 0.0572499968335032 0.00564999974519014 16 0.0204374566674232 -0.35104563832283 0.00237895594909787 0.35164812207222
0.0013499998524785 0.0572499968335032 0.00564999974519014 16 -0.0583976283669472 -0.388692617416382 0.0743163898587227 0.400018930435181
0.00414999989420176 0.0572499968335032 0.00564999974519014 16 -0.145212024450302 -0.3596151471138 0.163861826062202 0.421022891998291
0.006949999935925 0.0572499968335032 0.00564999974519014 16 -0.221409991383553 -0.25651291012764 0.250479698181152 0.421380281448364
0.00974999997764826 0.0572499968335032 0.00564999974519014 16 -0.273152410984039 -0.095232754945755 0.320124387741089 0.431463927030563
0.0125500000193715 0.0572499968335032 0.00564999974519014 16 -0.2784663438797 0.0876689627766609 0.339072674512863 0.44743674993515
0.0153500000610948 0.0572499968335032 0.00564999974519014 16 -0.239024505019188 0.250663489103317 0.302146047353745 0.459627151489258
0.018150000102818 0.0572499968335032 0.00564999974519014 16 -0.156216844916344 0.358754396438599 0.214460909366608 0.446208357810974
0.0209500001445413 0.0572499968335032 0.00564999974519014 16 -0.056176632642746 0.400094002485275 0.0994544178247452 0.416079580783844
0.0237500001862645 0.0572499968335032 0.00564999974519014 16 0.0393269173800945 0.378158718347549 -0.00797973852604628 0.380281865596771
0.0265500002279878 0.0572499968335032 0.00564999974519014 16 0.111296877264977 0.310597717761993 -0.0977507755160332 0.344112128019333
0.029350000269711 0.0572499968335032 0.00564999974519014 16 0.153884470462799 0.220428332686424 -0.154362574219704 0.309994995594025
0.0321500003114343 0.0572499968335032 0.00564999974519014 16 0.17464816570282 0.141816928982735 -0.188963875174522 0.293804973363876
0.0349500003531575 0.0572499968335032 0.00564999974519014 16 0.179795533418655 0.104050002992153 -0.199587658047676 0.288076490163803
-0.0350500006899238 0.05444999679178 0.00564999974519014 16 -0.0908375978469849 0.44739705324173 0.119379371404648 0.471876084804535
-0.0322500006482005 0.05444999679178 0.00564999974519014 16 -0.0758608803153038 0.450425446033478 0.095506027340889 0.466646939516068
-0.0294500006064773 0.05444999679178 0.00564999974519014 16 -0.0384853556752205 0.445794939994812 0.0388338565826416 0.449135065078735
-0.026650000564754 0.05444999679178 0.00564999974519014 16 0.00778583623468876 0.408345937728882 -0.0276803560554981 0.409357100725174
-0.0238500005230308 0.05444999679178 0.00564999974519014 16 0.0522381886839867 0.335384100675583 -0.0827566161751747 0.349370837211609
-0.0210500004813075 0.05444999679178 0.00564999974519014 16 0.0791443437337875 0.239652842283249 -0.107638128101826 0.274378001689911
-0.0182500004395843 0.05444999679178 0.00564999974519014 16 0.0884315147995949 0.143310412764549 -0.101284235715866 0.196510821580887
-0.015450000397861 0.05444999679178 0.00564999974519014 16 0.0822041630744934 0.0604680590331554 -0.0750061273574829 0.126648455858231
-0.0126500003561378 0.05444999679178 0.00564999974519014 16 0.0706425234675407 -0.0151672437787056 -0.0425883941352367 0.083870030939579
-0.0098500003144145 0.05444999679178 0.00564999974519014 16 0.0569220632314682 -0.0942369103431702 -0.0146352062001824 0.111062623560429
-0.00705000027269125 0.05444999679178 0.00564999974519014 16 0.0423344373703003 -0.189586848020554 0.00714443437755108 0.194387301802635
-0.004250000230968 0.05444999679178 0.00564999974519014 16 0.0239597726613283 -0.293195128440857 0.0225878916680813 0.295038402080536
-0.00145000018924474 0.05444999679178 0.00564999974519014 16 -0.00175751966889948 -0.383453041315079 0.0406710281968117 0.385607898235321
0.0013499998524785 0.05444999679178 0.00564999974519014 16 -0.0372391827404499 -0.427164405584335 0.0649762898683548 0.433679729700089
0.00414999989420176 0.05444999679178 0.00564999974519014 16 -0.0814638510346413 -0.397097051143646 0.10659521073103 0.419147908687592
0.006949999935925 0.05444999679178 0.00564999974519014 16 -0.12427569180727 -0.284399718046188 0.153748005628586 0.346361219882965
0.00974999997764826 0.05444999679178 0.00564999974519014 16 -0.157885029911995 -0.10497123003006 0.200176388025284 0.275712221860886
0.0125500000193715 0.05444999679178 0.00564999974519014 16 -0.166806444525719 0.0993559584021568 0.219285175204277 0.292885601520538
0.0153500000610948 0.05444999679178 0.00564999974519014 16 -0.151952803134918 0.28027531504631 0.204601243138313 0.378821283578873
0.018150000102818 0.05444999679178 0.00564999974519014 16 -0.110252074897289 0.398810714483261 0.156071349978447 0.442225933074951
0.0209500001445413 0.05444999679178 0.00564999974519014 16 -0.0568515658378601 0.441700160503387 0.0864250883460045 0.453652322292328
0.0237500001862645 0.05444999679178 0.00564999974519014 16 -0.00309809832833707 0.414393246173859 0.0196510218083858 0.414870470762253
0.0265500002279878 0.05444999679178 0.00564999974519014 16 0.0389558188617229 0.337268143892288 -0.0401354059576988 0.341874569654465
0.029350000269711 0.05444999679178 0.00564999974519014 16 0.0645736157894135 0.236409395933151 -0.0804433152079582 0.257934629917145
0.0321500003114343 0.05444999679178 0.00564999974519014 16 0.0786656066775322 0.149281978607178 -0.108825132250786 0.20078918337822
0.0349500003531575 0.05444999679178 0.00564999974519014 16 0.0823034346103668 0.107543349266052 -0.118251800537109 0.179785743355751
-0.0350500006899238 0.0516499967500567 0.00564999974519014 16 0.028313048183918 0.456523835659027 0.00243384670466185 0.4574074447155
-0.0322500006482005 0.0516499967500567 0.00564999974519014 16 0.0230566579848528 0.460286170244217 -0.00042129447683692 0.460863471031189
-0.0294500006064773 0.0516499967500567 0.00564999974519014 16 0.0128333875909448 0.45548740029335 -0.00597871001809835 0.455707401037216
-0.026650000564754 0.0516499967500567 0.00564999974519014 16 0.00363339320756495 0.416475474834442 -0.0134762423112988 0.416709303855896
-0.0238500005230308 0.0516499967500567 0.00564999974519014 16 -0.0028000702150166 0.340554386377335 -0.0161401312798262 0.340948134660721
-0.0210500004813075 0.0516499967500567 0.00564999974519014 16 -0.0120589202269912 0.241485685110092 -0.00570833263918757 0.241853967308998
-0.0182500004395843 0.0516499967500567 0.00564999974519014 16 -0.024422338232398 0.140500724315643 0.0211704578250647 0.144170358777046
-0.015450000397861 0.0516499967500567 0.00564999974519014 16 -0.04043023660779 0.0523765385150909 0.0582835450768471 0.0881752669811249
-0.0126500003561378 0.0516499967500567 0.00564999974519014 16 -0.0530602410435677 -0.0281416978687048 0.0961378887295723 0.113357126712799
-0.0098500003144145 0.0516499967500567 0.00564999974519014 16 -0.0595720559358597 -0.109792284667492 0.120729513466358 0.173720434308052
-0.00705000027269125 0.0516499967500567 0.00564999974519014 16 -0.0560894533991814 -0.203673660755157 0.12669812142849 0.246335953474045
-0.004250000230968 0.0516499967500567 0.00564999974519014 16 -0.0430069118738174 -0.304532051086426 0.108785696327686 0.326226443052292
-0.00145000018924474 0.0516499967500567 0.00564999974519014 16 -0.0250811092555523 -0.391274958848953 0.0798725187778473 0.400130957365036
0.0013499998524785 0.0516499967500567 0.00564999974519014 16 -0.00923739373683929 -0.433064699172974 0.0479488335549831 0.435808956623077
0.00414999989420176 0.0516499967500567 0.00564999974519014 16 -0.0025864914059639 -0.400774717330933 0.0317475311458111 0.402038514614105
0.006949999935925 0.0516499967500567 0.00564999974519014 16 -0.0038794451393187 -0.285154074430466 0.0292152650654316 0.286673039197922
0.00974999997764826 0.0516499967500567 0.00564999974519014 16 -0.0130637027323246 -0.102314688265324 0.0430690944194794 0.111776128411293
0.0125500000193715 0.0516499967500567 0.00564999974519014 16 -0.0225189980119467 0.105282954871655 0.0576571896672249 0.122130900621414
0.0153500000610948 0.0516499967500567 0.00564999974519014 16 -0.0345354750752449 0.288224875926971 0.06779545545578 0.298098146915436
0.018150000102818 0.0516499967500567 0.00564999974519014 16 -0.0416634045541286 0.408471912145615 0.0676945820450783 0.416134208440781
0.0209500001445413 0.0516499967500567 0.00564999974519014 16 -0.0465531945228577 0.452466487884521 0.0585559830069542 0.458608686923981
0.0237500001862645 0.0516499967500567 0.00564999974519014 16 -0.0467789024114609 0.425816208124161 0.0491287410259247 0.431185960769653
0.0265500002279878 0.0516499967500567 0.00564999974519014 16 -0.0453827418386936 0.348019033670425 0.0359234921634197 0.352799296379089
0.029350000269711 0.0516499967500567 0.00564999974519014 16 -0.0439910441637039 0.246028527617455 0.0243532471358776 0.251114189624786
0.0321500003114343 0.0516499967500567 0.00564999974519014 16 -0.0410881042480469 0.157327950000763 0.0104943960905075 0.162943080067635
0.0349500003531575 0.0516499967500567 0.00564999974519014 16 -0.0400682501494884 0.115173697471619 0.004796143155545 0.122038714587688
-0.0350500006899238 0.0488499967083335 0.00564999974519014 16 0.132226258516312 0.415860563516617 -0.100843533873558 0.447876334190369
-0.0322500006482005 0.0488499967083335 0.00564999974519014 16 0.110747285187244 0.419814109802246 -0.0825642719864845 0.441956698894501
-0.0294500006064773 0.0488499967083335 0.00564999974519014 16 0.063257560133934 0.417023003101349 -0.0419918671250343 0.42387855052948
-0.026650000564754 0.0488499967083335 0.00564999974519014 16 0.00841519702225924 0.383138537406921 0.00346876541152596 0.383246630430222
-0.0238500005230308 0.0488499967083335 0.00564999974519014 16 -0.041210763156414 0.313709586858749 0.0467158779501915 0.319834977388382
-0.0210500004813075 0.0488499967083335 0.00564999974519014 16 -0.0823580697178841 0.221183329820633 0.087795652449131 0.251819372177124
-0.0182500004395843 0.0488499967083335 0.00564999974519014 16 -0.11399233341217 0.123790338635445 0.131071776151657 0.213302865624428
-0.015450000397861 0.0488499967083335 0.00564999974519014 16 -0.138335436582565 0.0358711220324039 0.176389396190643 0.227016851305962
-0.0126500003561378 0.0488499967083335 0.00564999974519014 16 -0.151700586080551 -0.0451738834381104 0.216417238116264 0.268123418092728
-0.0098500003144145 0.0488499967083335 0.00564999974519014 16 -0.151748672127724 -0.123568899929523 0.235707432031631 0.306357502937317
-0.00705000027269125 0.0488499967083335 0.00564999974519014 16 -0.133104041218758 -0.206949338316917 0.225241735577583 0.333584398031235
-0.004250000230968 0.0488499967083335 0.00564999974519014 16 -0.0941276326775551 -0.291263997554779 0.177563607692719 0.353869408369064
-0.00145000018924474 0.0488499967083335 0.00564999974519014 16 -0.0415648408234119 -0.361125230789185 0.107979543507099 0.379207909107208
0.0013499998524785 0.0488499967083335 0.00564999974519014 16 0.0148250497877598 -0.391156047582626 0.0285481140017509 0.39247652888298
0.00414999989420176 0.0488499967083335 0.00564999974519014 16 0.0612935610115528 -0.357461363077164 -0.0360350385308266 0.364464044570923
0.006949999935925 0.0488499967083335 0.00564999974519014 16 0.0936210751533508 -0.250907748937607 -0.0804254040122032 0.279620915651321
0.00974999997764826 0.0488499967083335 0.00564999974519014 16 0.105189144611359 -0.08733219653368 -0.095568023622036 0.166808024048805
0.0125500000193715 0.0488499967083335 0.00564999974519014 16 0.0985676050186157 0.0976081043481827 -0.0891911238431931 0.164918079972267
0.0153500000610948 0.0488499967083335 0.00564999974519014 16 0.0690699443221092 0.260939419269562 -0.0621558949351311 0.276989877223969
0.018150000102818 0.0488499967083335 0.00564999974519014 16 0.0253991484642029 0.370879292488098 -0.0218356680124998 0.37238872051239
0.0209500001445413 0.0488499967083335 0.00564999974519014 16 -0.0277403853833675 0.414436101913452 0.025406738743186 0.416139781475067
0.0237500001862645 0.0488499967083335 0.00564999974519014 16 -0.0762961953878403 0.395163208246231 0.0725087672472 0.408940821886063
0.0265500002279878 0.0488499967083335 0.00564999974519014 16 -0.113709852099419 0.328683823347092 0.107808545231819 0.364123165607452
0.029350000269711 0.0488499967083335 0.00564999974519014 16 -0.136249020695686 0.239357084035873 0.129195988178253 0.304215729236603
0.0321500003114343 0.0488499967083335 0.00564999974519014 16 -0.144956693053246 0.160406932234764 0.134735360741615 0.254747807979584
0.0349500003531575 0.0488499967083335 0.00564999974519014 16 -0.146677270531654 0.122947998344898 0.135036677122116 0.234233513474464
-0.0350500006899238 0.0460499966666102 0.00564999974519014 16 0.18265126645565 0.335871428251266 -0.136928826570511 0.406104177236557
-0.0322500006482005 0.0460499966666102 0.00564999974519014 16 0.155942425131798 0.339892208576202 -0.11072064191103 0.390004873275757
-0.0294500006064773 0.0460499966666102 0.00564999974519014 16 0.0959512889385223 0.339198917150497 -0.0505322180688381 0.356112420558929
-0.026650000564754 0.0460499966666102 0.00564999974519014 16 0.0225849114358425 0.314391314983368 0.0202494375407696 0.315851271152496
-0.0238500005230308 0.0460499966666102 0.00564999974519014 16 -0.04699881747365 0.259641319513321 0.0869310349225998 0.277812004089355
-0.0210500004813075 0.0460499966666102 0.00564999974519014 16 -0.104799315333366 0.183379903435707 0.143971234560013 0.255614578723907
-0.0182500004395843 0.0460499966666102 0.00564999974519014 16 -0.1469357162714 0.098137840628624 0.193394258618355 0.261958926916122
-0.015450000397861 0.0460499966666102 0.00564999974519014 16 -0.175209641456604 0.0168152283877134 0.238349601626396 0.296296656131744
-0.0126500003561378 0.0460499966666102 0.00564999974519014 16 -0.187686413526535 -0.0592924728989601 0.273436933755875 0.336911767721176
-0.0098500003144145 0.0460499966666102 0.00564999974519014 16 -0.182673841714859 -0.128124803304672 0.284871727228165 0.361853003501892
-0.00705000027269125 0.0460499966666102 0.00564999974519014 16 -0.156067594885826 -0.194924458861351 0.262050241231918 0.36197093129158
-0.004250000230968 0.0460499966666102 0.00564999974519014 16 -0.106457903981209 -0.255828052759171 0.198672294616699 0.340957403182983
-0.00145000018924474 0.0460499966666102 0.00564999974519014 16 -0.0416483990848064 -0.302965849637985 0.110849060118198 0.325285136699677
0.0013499998524785 0.0460499966666102 0.00564999974519014 16 0.028355311602354 -0.316331714391708 0.0132858250290155 0.317877799272537
0.00414999989420176 0.0460499966666102 0.00564999974519014 16 0.0879964381456375 -0.281843066215515 -0.0688353478908539 0.303178489208221
0.006949999935925 0.0460499966666102 0.00564999974519014 16 0.132492363452911 -0.192533031105995 -0.129690915346146 0.267288118600845
0.00974999997764826 0.0460499966666102 0.00564999974519014 16 0.153529062867165 -0.0644017308950424 -0.158749461174011 0.230043798685074
0.0125500000193715 0.0460499966666102 0.00564999974519014 16 0.152110919356346 0.0781610906124115 -0.160330250859261 0.234419867396355
0.0153500000610948 0.0460499966666102 0.00564999974519014 16 0.120398066937923 0.204726591706276 -0.129742696881294 0.270632296800613
0.018150000102818 0.0460499966666102 0.00564999974519014 16 0.064610980451107 0.29466524720192 -0.0723671391606331 0.310224413871765
0.0209500001445413 0.0460499966666102 0.00564999974519014 16 -0.0094721931964159 0.337449729442596 0.00375526817515492 0.337603539228439
0.0237500001862645 0.0460499966666102 0.00564999974519014 16 -0.0829039588570595 0.332301050424576 0.0836231932044029 0.352547705173492
0.0265500002279878 0.0460499966666102 0.00564999974519014 16 -0.142782166600227 0.288120418787003 0.149857074022293 0.354763686656952
0.029350000269711 0.0460499966666102 0.00564999974519014 16 -0.180735304951668 0.221950650215149 0.195445388555527 0.346592336893082
0.0321500003114343 0.0460499966666102 0.00564999974519014 16 -0.198321372270584 0.160507455468178 0.217847749590874 0.335487186908722
0.0349500003531575 0.0460499966666102 0.00564999974519014 16 -0.202937185764313 0.130695357918739 0.224884137511253 0.32990550994873
-0.0350500006899238 0.043249996624887 0.00564999974519014 16 0.17814676463604 0.258482992649078 -0.127064600586891 0.338666707277298
-0.0322500006482005 0.043249996624887 0.00564999974519014 16 0.15449133515358 0.261146754026413 -0.0996426269412041 0.319364756345749
-0.0294500006064773 0.043249996624887 0.00564999974519014 16 0.101506344974041 0.260357320308685 -0.0391759686172009 0.282177656888962
-0.026650000564754 0.043249996624887 0.00564999974519014 16 0.0342771932482719 0.242021262645721 0.0322174057364464 0.246550559997559
-0.0238500005230308 0.043249996624887 0.00564999974519014 16 -0.0314736478030682 0.199888586997986 0.0987508893013 0.225161671638489
-0.0210500004813075 0.043249996624887 0.00564999974519014 16 -0.0874814987182617 0.139231145381927 0.15412412583828 0.225372076034546
-0.0182500004395843 0.043249996624887 0.00564999974519014 16 -0.128699570894241 0.067912258207798 0.200015604496002 0.247349739074707
-0.015450000397861 0.043249996624887 0.00564999974519014 16 -0.155457079410553 -0.00224197027273476 0.23952816426754 0.285562038421631
-0.0126500003561378 0.043249996624887 0.00564999974519014 16 -0.165857315063477 -0.0683963596820831 0.267691254615784 0.32225039601326
-0.0098500003144145 0.043249996624887 0.00564999974519014 16 -0.158604726195335 -0.124476104974747 0.272163212299347 0.338707208633423
-0.00705000027269125 0.043249996624887 0.00564999974519014 16 -0.131915003061295 -0.174629047513008 0.24411042034626 0.327851742506027
-0.004250000230968 0.043249996624887 0.00564999974519014 16 -0.0864967107772827 -0.214308813214302 0.180966705083847 0.293528378009796
-0.00145000018924474 0.043249996624887 0.00564999974519014 16 -0.0297061987221241 -0.241671442985535 0.0977416560053825 0.262375622987747
0.0013499998524785 0.043249996624887 0.00564999974519014 16 0.0298467222601175 -0.241949856281281 0.00889115128666162 0.243945926427841
0.00414999989420176 0.043249996624887 0.00564999974519014 16 0.0803131684660912 -0.209708675742149 -0.064815953373909 0.23372857272625
0.006949999935925 0.043249996624887 0.00564999974519014 16 0.118150778114796 -0.140061989426613 -0.120247982442379 0.219172403216362
0.00974999997764826 0.043249996624887 0.00564999974519014 16 0.137617230415344 -0.0478864647448063 -0.148875087499619 0.208315640687943
0.0125500000193715 0.043249996624887 0.00564999974519014 16 0.139852702617645 0.0529925972223282 -0.155571401119232 0.215799570083618
0.0153500000610948 0.043249996624887 0.00564999974519014 16 0.11667188256979 0.14352248609066 -0.131656631827354 0.227034136652946
0.018150000102818 0.043249996624887 0.00564999974519014 16 0.0691527128219604 0.213067531585693 -0.0782458260655403 0.237281024456024
0.0209500001445413 0.043249996624887 0.00564999974519014 16 -0.000463270727777854 0.253999978303909 -0.00045735904132016 0.254000812768936
0.0237500001862645 0.043249996624887 0.00564999974519014 16 -0.075218103826046 0.262202888727188 0.0860727950930595 0.28603607416153
0.0265500002279878 0.043249996624887 0.00564999974519014 16 -0.139319315552711 0.240739807486534 0.161037802696228 0.321401178836823
0.029350000269711 0.043249996624887 0.00564999974519014 16 -0.181780144572258 0.198823153972626 0.216502115130424 0.34561225771904
0.0321500003114343 0.043249996624887 0.00564999974519014 16 -0.202728435397148 0.156781554222107 0.247133314609528 0.356025487184525
0.0349500003531575 0.043249996624887 0.00564999974519014 16 -0.208996504545212 0.135545969009399 0.258763462305069 0.359180718660355
-0.0350500006899238 0.0404499965831637 0.00564999974519014 16 0.138645082712173 0.199275121092796 -0.0808158963918686 0.255859822034836
-0.0322500006482005 0.0404499965831637 0.00564999974519014 16 0.122533492743969 0.200467005372047 -0.0604441501200199 0.242600440979004
-0.0294500006064773 0.0404499965831637 0.00564999974519014 16 0.0859503522515297 0.198000147938728 -0.0149006117135286 0.21636438369751
-0.026650000564754 0.0404499965831637 0.00564999974519014 16 0.0372865349054337 0.182542145252228 0.040604006499052 0.190684571862221
-0.0238500005230308 0.0404499965831637 0.00564999974519014 16 -0.0125479903072119 0.148683547973633 0.0938555225729942 0.176275655627251
-0.0210500004813075 0.0404499965831637 0.00564999974519014 16 -0.0563154369592667 0.0999921634793282 0.138289213180542 0.179704666137695
-0.0182500004395843 0.0404499965831637 0.00564999974519014 16 -0.0889250785112381 0.0407807603478432 0.174702391028404 0.200229033827782
-0.015450000397861 0.0404499965831637 0.00564999974519014 16 -0.109022103250027 -0.0180386677384377 0.204091250896454 0.232087165117264
-0.0126500003561378 0.0404499965831637 0.00564999974519014 16 -0.11516397446394 -0.0730790048837662 0.222952827811241 0.261364191770554
-0.0098500003144145 0.0404499965831637 0.00564999974519014 16 -0.106902234256268 -0.116703003644943 0.221121206879616 0.271923273801804
-0.00705000027269125 0.0404499965831637 0.00564999974519014 16 -0.0848792940378189 -0.152810782194138 0.193215981125832 0.260553330183029
-0.004250000230968 0.0404499965831637 0.00564999974519014 16 -0.0515995621681213 -0.177670627832413 0.140569806098938 0.232355833053589
-0.00145000018924474 0.0404499965831637 0.00564999974519014 16 -0.0128466160967946 -0.192174926400185 0.0768499448895454 0.207369595766068
0.0013499998524785 0.0404499965831637 0.00564999974519014 16 0.0250912774354219 -0.18583807349205 0.0140717569738626 0.188051521778107
0.00414999989420176 0.0404499965831637 0.00564999974519014 16 0.056267648935318 -0.157987907528877 -0.0353232882916927 0.171388328075409
0.006949999935925 0.0404499965831637 0.00564999974519014 16 0.0794139951467514 -0.105739131569862 -0.0727422535419464 0.150926411151886
0.00974999997764826 0.0404499965831637 0.00564999974519014 16 0.0932086631655693 -0.0417839139699936 -0.0942083224654198 0.138956680893898
0.0125500000193715 0.0404499965831637 0.00564999974519014 16 0.0978784039616585 0.0269662272185087 -0.104179069399834 0.145466968417168
0.0153500000610948 0.0404499965831637 0.00564999974519014 16 0.0859766602516174 0.0894995778799057 -0.0912861153483391 0.154062703251839
0.018150000102818 0.0404499965831637 0.00564999974519014 16 0.0538341589272022 0.142616033554077 -0.0527378395199776 0.161303222179413
0.0209500001445413 0.0404499965831637 0.00564999974519014 16 0.000306822854327038 0.181548833847046 0.0108063528314233 0.18187041580677
0.0237500001862645 0.0404499965831637 0.00564999974519014 16 -0.0625535994768143 0.20092399418354 0.0860629081726074 0.227354854345322
0.0265500002279878 0.0404499965831637 0.00564999974519014 16 -0.119319781661034 0.19882744550705 0.153175234794617 0.277906835079193
0.029350000269711 0.0404499965831637 0.00564999974519014 16 -0.15894190967083 0.177828773856163 0.204905822873116 0.314439177513123
0.0321500003114343 0.0404499965831637 0.00564999974519014 16 -0.17937508225441 0.152012929320335 0.23440583050251 0.332008212804794
0.0349500003531575 0.0404499965831637 0.00564999974519014 16 -0.186209678649902 0.137770250439644 0.246619746088982 0.338342994451523
-0.0350500006899238 0.0376499965414405 0.00564999974519014 16 0.0879719704389572 0.165492862462997 -0.0346645675599575 0.190600603818893
-0.0322500006482005 0.0376499965414405 0.00564999974519014 16 0.078782930970192 0.165289491415024 -0.0205874238163233 0.184258535504341
-0.0294500006064773 0.0376499965414405 0.00564999974519014 16 0.057265181094408 0.160431325435638 0.0100631583482027 0.170642241835594
-0.026650000564754 0.0376499965414405 0.00564999974519014 16 0.0271224603056908 0.144666418433189 0.0482387952506542 0.154890224337578
-0.0238500005230308 0.0376499965414405 0.00564999974519014 16 -0.00520757585763931 0.113778740167618 0.0856312364339828 0.14249712228775
-0.0210500004813075 0.0376499965414405 0.00564999974519014 16 -0.0339201614260674 0.0717573165893555 0.116689316928387 0.141124367713928
-0.0182500004395843 0.0376499965414405 0.00564999974519014 16 -0.0552404820919037 0.0214054975658655 0.142036914825439 0.153896689414978
-0.015450000397861 0.0376499965414405 0.00564999974519014 16 -0.066955454647541 -0.0276830922812223 0.16059148311615 0.17617891728878
-0.0126500003561378 0.0376499965414405 0.00564999974519014 16 -0.0682938992977142 -0.073059044778347 0.169980645179749 0.197218403220177
-0.0098500003144145 0.0376499965414405 0.00564999974519014 16 -0.0590610094368458 -0.107573509216309 0.162986516952515 0.204021736979485
-0.00705000027269125 0.0376499965414405 0.00564999974519014 16 -0.0419873557984829 -0.134005606174469 0.138483539223671 0.197226092219353
-0.004250000230968 0.0376499965414405 0.00564999974519014 16 -0.0205562636256218 -0.14964896440506 0.100891537964344 0.181649327278137