TITLE="DynamicStudio Exported Data"
VARIABLES= "X (m)[m]" "Y (m)[m]" "Z (m)[m]" "Status[-]" "U[-]" "V[-]" "W[-]" "Length[-]"
ZONE T="DynamicStudio Data" F=POINT
-0.0350500006899238 0.0600499968752265 0.00564999974519014 16 0.0457139983773232 0.365388721227646 0.000410888867918402 0.368237495422363
-0.0322500006482005 0.0600499968752265 0.00564999974519014 16 0.0725438594818115 0.334021776914597 -0.033422339707613 0.343438804149628
-0.0294500006064773 0.0600499968752265 0.00564999974519014 16 0.124043561518192 0.26623860001564 -0.0973436757922173 0.309427827596664
-0.026650000564754 0.0600499968752265 0.00564999974519014 16 0.169767409563065 0.182850986719131 -0.156525313854218 0.294543087482452
-0.0238500005230308 0.0600499968752265 0.00564999974519014 16 0.194295406341553 0.100856259465218 -0.187131196260452 0.287994414567947
-0.0210500004813075 0.0600499968752265 0.00564999974519014 16 0.200939834117889 0.0285273734480143 -0.198152676224709 0.283646106719971
-0.0182500004395843 0.0600499968752265 0.00564999974519014 16 0.197412833571434 -0.0385541841387749 -0.201315730810165 0.284580886363983
-0.015450000397861 0.0600499968752265 0.00564999974519014 16 0.190504267811775 -0.104672856628895 -0.213565558195114 0.304726988077164
-0.0126500003561378 0.0600499968752265 0.00564999974519014 16 0.17227403819561 -0.174562111496925 -0.222489714622498 0.331137359142303
-0.0098500003144145 0.0600499968752265 0.00564999974519014 16 0.137328863143921 -0.24205482006073 -0.218685299158096 0.353939294815063
-0.00705000027269125 0.0600499968752265 0.00564999974519014 16 0.0771303027868271 -0.299565404653549 -0.178876399993896 0.357330799102783
-0.004250000230968 0.0600499968752265 0.00564999974519014 16 -0.00804038625210524 -0.327635735273361 -0.0993614569306374 0.342465370893478
-0.00145000018924474 0.0600499968752265 0.00564999974519014 16 -0.110516421496868 -0.308854252099991 0.0156216351315379 0.328403502702713
0.0013499998524785 0.0600499968752265 0.00564999974519014 16 -0.210488051176071 -0.227851867675781 0.141560405492783 0.340970724821091
0.00414999989420176 0.0600499968752265 0.00564999974519014 16 -0.281223654747009 -0.0911360830068588 0.244728922843933 0.383776992559433
0.006949999935925 0.0600499968752265 0.00564999974519014 16 -0.299968838691711 0.0756129547953606 0.30012509226799 0.431014746427536
0.00974999997764826 0.0600499968752265 0.00564999974519014 16 -0.258152037858963 0.229864895343781 0.286806374788284 0.449152797460556
0.0125500000193715 0.0600499968752265 0.00564999974519014 16 -0.168802410364151 0.334059417247772 0.218071222305298 0.433180123567581
0.0153500000610948 0.0600499968752265 0.00564999974519014 16 -0.0558155588805676 0.368800282478333 0.109115391969681 0.388632446527481
0.018150000102818 0.0600499968752265 0.00564999974519014 16 0.0491581037640572 0.33782759308815 0.00393172819167376 0.341408044099808
0.0209500001445413 0.0600499968752265 0.00564999974519014 16 0.128764227032661 0.265314608812332 -0.0789617896080017 0.305298268795013
0.0237500001862645 0.0600499968752265 0.00564999974519014 16 0.175815597176552 0.176376342773438 -0.127258270978928 0.279668390750885
0.0265500002279878 0.0600499968752265 0.00564999974519014 16 0.198922544717789 0.0941419154405594 -0.156369432806969 0.269970893859863
0.029350000269711 0.0600499968752265 0.00564999974519014 16 0.207377105951309 0.0284280274063349 -0.179149031639099 0.275513708591461
0.0321500003114343 0.0600499968752265 0.00564999974519014 16 0.209181681275368 -0.0147976148873568 -0.196585714817047 0.287440240383148
0.0349500003531575 0.0600499968752265 0.00564999974519014 16 0.208209022879601 -0.0321062915027142 -0.205293640494347 0.294155210256577
-0.0350500006899238 0.0572499968335032 0.00564999974519014 16 0.0328257791697979 0.38907852768898 0.0133417509496212 0.390688687562943
-0.0322500006482005 0.0572499968335032 0.00564999974519014 16 0.0561501793563366 0.355437278747559 -0.0170422401279211 0.360248446464539
-0.0294500006064773 0.0572499968335032 0.00564999974519014 16 0.100305452942848 0.281601279973984 -0.0739413127303123 0.307941198348999
-0.026650000564754 0.0572499968335032 0.00564999974519014 16 0.139466241002083 0.190623879432678 -0.127552077174187 0.268435895442963
-0.0238500005230308 0.0572499968335032 0.00564999974519014 16 0.159633174538612 0.102633588016033 -0.154766142368317 0.244885608553886
-0.0210500004813075 0.0572499968335032 0.00564999974519014 16 0.164856418967247 0.0264995750039816 -0.164558470249176 0.234434112906456
-0.0182500004395843 0.0572499968335032 0.00564999974519014 16 0.161729544401169 -0.042012233287096 -0.16727888584137 0.236439630389214
-0.015450000397861 0.0572499968335032 0.00564999974519014 16 0.156882151961327 -0.109947741031647 -0.179545536637306 0.262558788061142
-0.0126500003561378 0.0572499968335032 0.00564999974519014 16 0.143684789538383 -0.182563722133636 -0.191836208105087 0.301290482282639
-0.0098500003144145 0.0572499968335032 0.00564999974519014 16 0.117835581302643 -0.255543172359467 -0.19491945207119 0.342317283153534
-0.00705000027269125 0.0572499968335032 0.00564999974519014 16 0.0717192143201828 -0.318723142147064 -0.169582709670067 0.368084758520126
-0.004250000230968 0.0572499968335032 0.00564999974519014 16 0.00392001075670123 -0.351456552743912 -0.108225934207439 0.36776340007782
-0.00145000018924474 0.0572499968335032 0.00564999974519014 16 -0.0811120569705963 -0.333089619874954 -0.0128643475472927 0.343064665794373
0.0013499998524785 0.0572499968335032 0.00564999974519014 16 -0.167935490608215 -0.247293382883072 0.0989928990602493 0.31489035487175
0.00414999989420176 0.0572499968335032 0.00564999974519014 16 -0.232228919863701 -0.100398235023022 0.195591315627098 0.319790631532669
0.006949999935925 0.0572499968335032 0.00564999974519014 16 -0.253452569246292 0.0800338461995125 0.254011213779449 0.367648363113403
0.00974999997764826 0.0572499968335032 0.00564999974519014 16 -0.221389636397362 0.247711285948753 0.251659661531448 0.416781544685364
0.0125500000193715 0.0572499968335032 0.00564999974519014 16 -0.148246139287949 0.361344188451767 0.199662148952484 0.438647359609604
0.0153500000610948 0.0572499968335032 0.00564999974519014 16 -0.053369827568531 0.398363560438156 0.108643241226673 0.416347473859787
0.018150000102818 0.0572499968335032 0.00564999974519014 16 0.034997969865799 0.363196283578873 0.0182104483246803 0.365332782268524
0.0209500001445413 0.0572499968335032 0.00564999974519014 16 0.102649055421352 0.282383441925049 -0.0551668554544449 0.305484235286713
0.0237500001862645 0.0572499968335032 0.00564999974519014 16 0.14281815290451 0.185345709323883 -0.0981936082243919 0.253755867481232
0.0265500002279878 0.0572499968335032 0.00564999974519014 16 0.162633761763573 0.0975144132971764 -0.123568721115589 0.226336106657982
0.029350000269711 0.0572499968335032 0.00564999974519014 16 0.169834718108177 0.0294873248785734 -0.142964825034142 0.223947033286095
0.0321500003114343 0.0572499968335032 0.00564999974519014 16 0.171625018119812 -0.014075399376452 -0.158110350370407 0.233777984976768
0.0349500003531575 0.0572499968335032 0.00564999974519014 16 0.171263247728348 -0.031449418514967 -0.166081055998802 0.240630596876144
-0.0350500006899238 0.05444999679178 0.00564999974519014 16 0.00661343242973089 0.42675906419754 0.0437014251947403 0.429041773080826
-0.0322500006482005 0.05444999679178 0.00564999974519014 16 0.0199591238051653 0.388522356748581 0.0224082078784704 0.38967952132225
-0.0294500006064773 0.05444999679178 0.00564999974519014 16 0.0440153814852238 0.304639667272568 -0.0161185655742884 0.308224737644196
-0.026650000564754 0.05444999679178 0.00564999974519014 16 0.0654355511069298 0.201416909694672 -0.0544977933168411 0.218679204583168
-0.0238500005230308 0.05444999679178 0.00564999974519014 16 0.0748345851898193 0.104018166661263 -0.0734639391303062 0.147705599665642
-0.0210500004813075 0.05444999679178 0.00564999974519014 16 0.0775766745209694 0.0217821896076202 -0.082010917365551 0.114971280097961
-0.0182500004395843 0.05444999679178 0.00564999974519014 16 0.0763430818915367 -0.049131877720356 -0.0854853764176369 0.124699473381042
-0.015450000397861 0.05444999679178 0.00564999974519014 16 0.0769353285431862 -0.120275743305683 -0.0989159122109413 0.173694148659706
-0.0126500003561378 0.05444999679178 0.00564999974519014 16 0.0748789384961128 -0.197534129023552 -0.117445580661297 0.241702407598495
-0.0098500003144145 0.05444999679178 0.00564999974519014 16 0.0693724304437637 -0.278713554143906 -0.136060535907745 0.31781479716301
-0.00705000027269125 0.05444999679178 0.00564999974519014 16 0.0549996867775917 -0.349566638469696 -0.14180152118206 0.381221026182175
-0.004250000230968 0.05444999679178 0.00564999974519014 16 0.0273039694875479 -0.387960433959961 -0.121944844722748 0.407589673995972
-0.00145000018924474 0.05444999679178 0.00564999974519014 16 -0.0165152195841074 -0.369043290615082 -0.0716174840927124 0.376290798187256
0.0013499998524785 0.05444999679178 0.00564999974519014 16 -0.0708425641059875 -0.276033371686935 0.00461182976141572 0.285016417503357
0.00414999989420176 0.05444999679178 0.00564999974519014 16 -0.118096999824047 -0.114933133125305 0.0819070711731911 0.184025257825851
0.006949999935925 0.05444999679178 0.00564999974519014 16 -0.143008664250374 0.0847896710038185 0.142131671309471 0.218728557229042
0.00974999997764826 0.05444999679178 0.00564999974519014 16 -0.133540153503418 0.271772563457489 0.161511734127998 0.34318995475769
0.0125500000193715 0.05444999679178 0.00564999974519014 16 -0.0987284183502197 0.399612605571747 0.147582545876503 0.437284976243973
0.0153500000610948 0.05444999679178 0.00564999974519014 16 -0.0474276952445507 0.440884709358215 0.100239306688309 0.454617023468018
0.018150000102818 0.05444999679178 0.00564999974519014 16 0.000689255248289555 0.400528371334076 0.0492646917700768 0.403547346591949
0.0209500001445413 0.05444999679178 0.00564999974519014 16 0.0388329103589058 0.308513134717941 0.00306307780556381 0.310962587594986
0.0237500001862645 0.05444999679178 0.00564999974519014 16 0.0617600418627262 0.199802502989769 -0.0246131364256144 0.210573390126228
0.0265500002279878 0.05444999679178 0.00564999974519014 16 0.0744103789329529 0.104058556258678 -0.0425311923027039 0.13481093943119
0.029350000269711 0.05444999679178 0.00564999974519014 16 0.0802328959107399 0.0329673662781715 -0.0565722361207008 0.10355956107378
0.0321500003114343 0.05444999679178 0.00564999974519014 16 0.0830435082316399 -0.0106451958417892 -0.0678745359182358 0.10777985304594
0.0349500003531575 0.05444999679178 0.00564999974519014 16 0.0833532512187958 -0.0273835696280003 -0.0739450231194496 0.11474097520113
-0.0350500006899238 0.0516499967500567 0.00564999974519014 16 -0.0127111906185746 0.433490693569183 0.0699922740459442 0.439288824796677
-0.0322500006482005 0.0516499967500567 0.00564999974519014 16 -0.0124085722491145 0.395148813724518 0.0618441887199879 0.400151580572128
-0.0294500006064773 0.0516499967500567 0.00564999974519014 16 -0.0147178051993251 0.310098677873611 0.0483325906097889 0.314187586307526
-0.026650000564754 0.0516499967500567 0.00564999974519014 16 -0.0177761018276215 0.203118026256561 0.0316241011023521 0.20633228123188
-0.0238500005230308 0.0516499967500567 0.00564999974519014 16 -0.0246060099452734 0.101572640240192 0.0245901364833117 0.107364483177662
-0.0210500004813075 0.0516499967500567 0.00564999974519014 16 -0.028295174241066 0.0145091647282243 0.0199993159621954 0.0375646837055683
-0.0182500004395843 0.0516499967500567 0.00564999974519014 16 -0.0294081699103117 -0.0587297603487968 0.0166872404515743 0.0677679106593132
-0.015450000397861 0.0516499967500567 0.00564999974519014 16 -0.0233073178678751 -0.131363332271576 0.00228431075811386 0.133434534072876
-0.0126500003561378 0.0516499967500567 0.00564999974519014 16 -0.0117556508630514 -0.208169534802437 -0.0242582205682993 0.20990763604641
-0.0098500003144145 0.0516499967500567 0.00564999974519014 16 0.00735501386225224 -0.289399802684784 -0.0625973045825958 0.296183675527573
-0.00705000027269125 0.0516499967500567 0.00564999974519014 16 0.0305458605289459 -0.358480542898178 -0.105505652725697 0.374930381774902
-0.004250000230968 0.0516499967500567 0.00564999974519014 16 0.0506326146423817 -0.394760489463806 -0.136919170618057 0.420887559652328
-0.00145000018924474 0.0516499967500567 0.00564999974519014 16 0.0572521016001701 -0.372690469026566 -0.142739415168762 0.403175562620163
0.0013499998524785 0.0516499967500567 0.00564999974519014 16 0.0451140888035297 -0.278097033500671 -0.114750303328037 0.304205328226089
0.00414999989420176 0.0516499967500567 0.00564999974519014 16 0.0217682905495167 -0.116062238812447 -0.0658535212278366 0.135207206010818
0.006949999935925 0.0516499967500567 0.00564999974519014 16 -0.00407310063019395 0.0847790688276291 -0.00852915178984404 0.085304319858551
0.00974999997764826 0.0516499967500567 0.00564999974519014 16 -0.0202047806233168 0.274712324142456 0.0358857549726963 0.277782082557678
0.0125500000193715 0.0516499967500567 0.00564999974519014 16 -0.0303029622882605 0.406925290822983 0.0684821233153343 0.41375869512558
0.0153500000610948 0.0516499967500567 0.00564999974519014 16 -0.0329592972993851 0.452341437339783 0.0784934759140015 0.460282862186432
0.018150000102818 0.0516499967500567 0.00564999974519014 16 -0.0358754359185696 0.414265155792236 0.0802287086844444 0.423484712839127
0.0209500001445413 0.0516499967500567 0.00564999974519014 16 -0.0366268828511238 0.321813225746155 0.0724377334117889 0.331892311573029
0.0237500001862645 0.0516499967500567 0.00564999974519014 16 -0.0369791053235531 0.210611179471016 0.0677730217576027 0.224316075444221
0.0265500002279878 0.0516499967500567 0.00564999974519014 16 -0.034219566732645 0.111171126365662 0.0622449479997158 0.131925851106644
0.029350000269711 0.0516499967500567 0.00564999974519014 16 -0.0300543010234833 0.0364889539778233 0.0559358634054661 0.0732360929250717
0.0321500003114343 0.0516499967500567 0.00564999974519014 16 -0.0253027975559235 -0.00973756425082684 0.0490038320422173 0.05600381270051
0.0349500003531575 0.0516499967500567 0.00564999974519014 16 -0.0229752156883478 -0.0277679637074471 0.0444419011473656 0.0572189055383205
-0.0350500006899238 0.0488499967083335 0.00564999974519014 16 -0.0150957051664591 0.397402167320251 0.0837804824113846 0.406417936086655
-0.0322500006482005 0.0488499967083335 0.00564999974519014 16 -0.0271690618246794 0.362515360116959 0.0880795270204544 0.374050199985504
-0.0294500006064773 0.0488499967083335 0.00564999974519014 16 -0.0545088797807693 0.286029785871506 0.0990301445126534 0.307556867599487
-0.026650000564754 0.0488499967083335 0.00564999974519014 16 -0.082137443125248 0.187398374080658 0.105458907783031 0.230187520384789
-0.0238500005230308 0.0488499967083335 0.00564999974519014 16 -0.105298168957233 0.0915830284357071 0.111309021711349 0.178507283329964
-0.0210500004813075 0.0488499967083335 0.00564999974519014 16 -0.116478502750397 0.00611476041376591 0.111338883638382 0.161248192191124
-0.0182500004395843 0.0488499967083335 0.00564999974519014 16 -0.117905080318451 -0.0657938793301582 0.107010163366795 0.172283545136452
-0.015450000397861 0.0488499967083335 0.00564999974519014 16 -0.107393182814121 -0.135847195982933 0.09087985008955 0.195568159222603
-0.0126500003561378 0.0488499967083335 0.00564999974519014 16 -0.0844656601548195 -0.205640837550163 0.0565584264695644 0.229393675923347
-0.0098500003144145 0.0488499967083335 0.00564999974519014 16 -0.0457987636327744 -0.276589870452881 0.00124857504852116 0.280358761548996
-0.00705000027269125 0.0488499967083335 0.00564999974519014 16 0.00670866994187236 -0.332773506641388 -0.0715246051549911 0.340439409017563
-0.004250000230968 0.0488499967083335 0.00564999974519014 16 0.0641742721199989 -0.358454436063766 -0.143742859363556 0.391497045755386
-0.00145000018924474 0.0488499967083335 0.00564999974519014 16 0.11121229082346 -0.33241793513298 -0.195233285427094 0.401230454444885
0.0013499998524785 0.0488499967083335 0.00564999974519014 16 0.134877368807793 -0.245604678988457 -0.210481986403465 0.350451469421387
0.00414999989420176 0.0488499967083335 0.00564999974519014 16 0.133799314498901 -0.101588875055313 -0.192021071910858 0.255136519670486
0.006949999935925 0.0488499967083335 0.00564999974519014 16 0.110978074371815 0.0750148221850395 -0.145464733242989 0.197745651006699
0.00974999997764826 0.0488499967083335 0.00564999974519014 16 0.0761970430612564 0.244147703051567 -0.0857874974608421 0.269765794277191
0.0125500000193715 0.0488499967083335 0.00564999974519014 16 0.0308990068733692 0.364462018013 -0.0164997968822718 0.366141438484192
0.0153500000610948 0.0488499967083335 0.00564999974519014 16 -0.016531391069293 0.410688638687134 0.0444425381720066 0.41341695189476
0.018150000102818 0.0488499967083335 0.00564999974519014 16 -0.0630928799510002 0.383336573839188 0.096504382789135 0.400300800800323
0.0209500001445413 0.0488499967083335 0.00564999974519014 16 -0.0991448760032654 0.30571848154068 0.129863068461418 0.346638023853302
0.0237500001862645 0.0488499967083335 0.00564999974519014 16 -0.121691055595875 0.207604125142097 0.151678219437599 0.284454673528671
0.0265500002279878 0.0488499967083335 0.00564999974519014 16 -0.128672942519188 0.115127563476562 0.160095155239105 0.23546028137207
0.029350000269711 0.0488499967083335 0.00564999974519014 16 -0.125514417886734 0.0417639128863811 0.159447878599167 0.207175567746162
0.0321500003114343 0.0488499967083335 0.00564999974519014 16 -0.118426024913788 -0.00631000613793731 0.154240265488625 0.194562584161758
0.0349500003531575 0.0488499967083335 0.00564999974519014 16 -0.114085026085377 -0.0255153346806765 0.149543195962906 0.189814627170563
-0.0350500006899238 0.0460499966666102 0.00564999974519014 16 0.00235602352768183 0.324069947004318 0.0733306854963303 0.332271367311478
-0.0322500006482005 0.0460499966666102 0.00564999974519014 16 -0.0164062213152647 0.297492504119873 0.0858323276042938 0.310061514377594
-0.0294500006064773 0.0460499966666102 0.00564999974519014 16 -0.0570462197065353 0.238285273313522 0.112807832658291 0.269740164279938
-0.026650000564754 0.0460499966666102 0.00564999974519014 16 -0.099715530872345 0.158330053091049 0.136184260249138 0.23142546415329
-0.0238500005230308 0.0460499966666102 0.00564999974519014 16 -0.133883029222488 0.0763654112815857 0.152560278773308 0.21686626970768
-0.0210500004813075 0.0460499966666102 0.00564999974519014 16 -0.152213737368584 -0.00144278269726783 0.158058762550354 0.219439461827278
-0.0182500004395843 0.0460499966666102 0.00564999974519014 16 -0.155727997422218 -0.068109430372715 0.153809040784836 0.229232028126717
-0.015450000397861 0.0460499966666102 0.00564999974519014 16 -0.144148200750351 -0.130983039736748 0.136509507894516 0.237844705581665
-0.0126500003561378 0.0460499966666102 0.00564999974519014 16 -0.116026408970356 -0.188240230083466 0.0971647724509239 0.241531580686569
-0.0098500003144145 0.0460499966666102 0.00564999974519014 16 -0.069207064807415 -0.24174652993679 0.0329867415130138 0.253612160682678
-0.00705000027269125 0.0460499966666102 0.00564999974519014 16 -0.00528489844873548 -0.278681218624115 -0.054170235991478 0.283946424722672
-0.004250000230968 0.0460499966666102 0.00564999974519014 16 0.0664607882499695 -0.289518594741821 -0.14550606906414 0.330771923065186
-0.00145000018924474 0.0460499966666102 0.00564999974519014 16 0.129920303821564 -0.260493993759155 -0.219461962580681 0.364554464817047
0.0013499998524785 0.0460499966666102 0.00564999974519014 16 0.170016050338745 -0.188489764928818 -0.257775098085403 0.36177596449852
0.00414999989420176 0.0460499966666102 0.00564999974519014 16 0.181009948253632 -0.0756506621837616 -0.258609294891357 0.324601888656616
0.006949999935925 0.0460499966666102 0.00564999974519014 16 0.163095653057098 0.0597861781716347 -0.222680762410164 0.282420426607132
0.00974999997764826 0.0460499966666102 0.00564999974519014 16 0.123678371310234 0.191830292344093 -0.161066263914108 0.279352009296417
0.0125500000193715 0.0460499966666102 0.00564999974519014 16 0.0657327622175217 0.288951247930527 -0.0773154199123383 0.306253641843796
0.0153500000610948 0.0460499966666102 0.00564999974519014 16 -0.00102786638308316 0.333026081323624 0.00876562483608723 0.333143025636673
0.018150000102818 0.0460499966666102 0.00564999974519014 16 -0.0693561136722565 0.321212589740753 0.0897231698036194 0.340643584728241
0.0209500001445413 0.0460499966666102 0.00564999974519014 16 -0.125442743301392 0.268223434686661 0.150566652417183 0.332189738750458
0.0237500001862645 0.0460499966666102 0.00564999974519014 16 -0.162021994590759 0.193711087107658 0.192804589867592 0.317724287509918
0.0265500002279878 0.0460499966666102 0.00564999974519014 16 -0.176016464829445 0.115874148905277 0.213761940598488 0.300171256065369
0.029350000269711 0.0460499966666102 0.00564999974519014 16 -0.173884570598602 0.0478070192039013 0.218340650200844 0.283185452222824
0.0321500003114343 0.0460499966666102 0.00564999974519014 16 -0.165622696280479 -0.00118788110557944 0.214231848716736 0.270790636539459
0.0349500003531575 0.0460499966666102 0.00564999974519014 16 -0.160077348351479 -0.0219327583909035 0.209356486797333 0.264454036951065
-0.0350500006899238 0.043249996624887 0.00564999974519014 16 0.0250268653035164 0.247001349925995 0.0519614778459072 0.253645449876785
-0.0322500006482005 0.043249996624887 0.00564999974519014 16 0.00541763566434383 0.227334067225456 0.0668845176696777 0.237030938267708
-0.0294500006064773 0.043249996624887 0.00564999974519014 16 -0.0362524725496769 0.183471783995628 0.0988063886761665 0.211515575647354
-0.026650000564754 0.043249996624887 0.00564999974519014 16 -0.0813165530562401 0.122107222676277 0.129415765404701 0.195629745721817
-0.0238500005230308 0.043249996624887 0.00564999974519014 16 -0.117058351635933 0.0561801269650459 0.150677904486656 0.198903739452362
-0.0210500004813075 0.043249996624887 0.00564999974519014 16 -0.137374207377434 -0.0092827407643199 0.159002646803856 0.210332319140434
-0.0182500004395843 0.043249996624887 0.00564999974519014 16 -0.142001196742058 -0.0662804022431374 0.154500424861908 0.22006319463253
-0.015450000397861 0.043249996624887 0.00564999974519014 16 -0.131661757826805 -0.118489682674408 0.136312425136566 0.223507732152939
-0.0126500003561378 0.043249996624887 0.00564999974519014 16 -0.105152674019337 -0.16226726770401 0.0958154052495956 0.215796992182732
-0.0098500003144145 0.043249996624887 0.00564999974519014 16 -0.0615859143435955 -0.199288636445999 0.0315903834998608 0.210966199636459
-0.00705000027269125 0.043249996624887 0.00564999974519014 16 -0.00338518200442195 -0.220264926552773 -0.0530444122850895 0.226587295532227
-0.004250000230968 0.043249996624887 0.00564999974519014 16 0.0611434020102024 -0.220633387565613 -0.139908641576767 0.268313318490982
-0.00145000018924474 0.043249996624887 0.00564999974519014 16 0.11819663643837 -0.19273567199707 -0.210593312978745 0.308977395296097
0.0013499998524785 0.043249996624887 0.00564999974519014 16 0.155410438776016 -0.13714662194252 -0.249814167618752 0.324605494737625
0.00414999989420176 0.043249996624887 0.00564999974519014 16 0.167698979377747 -0.05510638281703 -0.257334589958191 0.31205889582634
0.006949999935925 0.043249996624887 0.00564999974519014 16 0.154499158263206 0.0410360582172871 -0.23070102930069 0.280672252178192
0.00974999997764826 0.043249996624887 0.00564999974519014 16 0.121172159910202 0.13661040365696 -0.178279757499695 0.255203396081924
0.0125500000193715 0.043249996624887 0.00564999974519014 16 0.0685944110155106 0.209779396653175 -0.0997842475771904 0.242217853665352
0.0153500000610948 0.043249996624887 0.00564999974519014 16 0.00476958742365241 0.249323964118958 -0.0133649911731482 0.249727487564087
0.018150000102818 0.043249996624887 0.00564999974519014 16 -0.0639749392867088 0.250902324914932 0.0735437422990799 0.26917177438736
0.0209500001445413 0.043249996624887 0.00564999974519014 16 -0.123101904988289 0.222314491868019 0.144408464431763 0.29228687286377
0.0237500001862645 0.043249996624887 0.00564999974519014 16 -0.163493633270264 0.173846527934074 0.196638092398643 0.309223741292953
0.0265500002279878 0.043249996624887 0.00564999974519014 16 -0.180497378110886 0.115592375397682 0.224244117736816 0.310203671455383
0.029350000269711 0.043249996624887 0.00564999974519014 16 -0.179225206375122 0.0586019977927208 0.231175616383553 0.298325389623642
0.0321500003114343 0.043249996624887 0.00564999974519014 16 -0.170750573277473 0.0135441990569234 0.226093739271164 0.283650457859039
0.0349500003531575 0.043249996624887 0.00564999974519014 16 -0.165026381611824 -0.00614399556070566 0.221097603440285 0.2759630382061
-0.0350500006899238 0.0404499965831637 0.00564999974519014 16 0.0386419631540775 0.180011823773384 0.0304274223744869 0.186609983444214
-0.0322500006482005 0.0404499965831637 0.00564999974519014 16 0.0229356493800879 0.165876686573029 0.0431128293275833 0.172915682196617
-0.0294500006064773 0.0404499965831637 0.00564999974519014 16 -0.0104001890867949 0.13363578915596 0.0703655257821083 0.151386901736259
-0.026650000564754 0.0404499965831637 0.00564999974519014 16 -0.0477053113281727 0.0873144716024399 0.0987344086170197 0.140171676874161
-0.0238500005230308 0.0404499965831637 0.00564999974519014 16 -0.0778087973594666 0.0358354523777962 0.119674861431122 0.147174939513206
-0.0210500004813075 0.0404499965831637 0.00564999974519014 16 -0.0956931337714195 -0.0165836755186319 0.128971755504608 0.161449402570724
-0.0182500004395843 0.0404499965831637 0.00564999974519014 16 -0.100193113088608 -0.0628423914313316 0.125178217887878 0.172213271260262
-0.015450000397861 0.0404499965831637 0.00564999974519014 16 -0.0916842296719551 -0.104319222271442 0.10731728374958 0.175514951348305
-0.0126500003561378 0.0404499965831637 0.00564999974519014 16 -0.0706605017185211 -0.136801436543465 0.0703553929924965 0.169285029172897
-0.0098500003144145 0.0404499965831637 0.00564999974519014 16 -0.0363580845296383 -0.161361038684845 0.0129895079880953 0.165915712714195
-0.00705000027269125 0.0404499965831637 0.00564999974519014 16 0.0075379409827292 -0.171497479081154 -0.0593557618558407 0.181635111570358
-0.004250000230968 0.0404499965831637 0.00564999974519014 16 0.0553335025906563 -0.166012555360794 -0.13138684630394 0.218825206160545
-0.00145000018924474 0.0404499965831637 0.00564999974519014 16 0.0958183035254478 -0.141426131129265 -0.186728298664093 0.253080934286118
0.0013499998524785 0.0404499965831637 0.00564999974519014 16 0.12087894231081 -0.100053556263447 -0.21440464258194 0.265691131353378
0.00414999989420176 0.0404499965831637 0.00564999974519014 16 0.128132626414299 -0.0428152978420258 -0.217305243015289 0.255876332521439
0.006949999935925 0.0404499965831637 0.00564999974519014 16 0.117874249815941 0.0231184437870979 -0.194880947470665 0.228926584124565
0.00974999997764826 0.0404499965831637 0.00564999974519014 16 0.0941900983452797 0.0900628715753555 -0.154528900980949 0.202144205570221
0.0125500000193715 0.0404499965831637 0.00564999974519014 16 0.0550367683172226 0.144453763961792 -0.092702679336071 0.180249065160751
0.0153500000610948 0.0404499965831637 0.00564999974519014 16 0.00460365694016218 0.179503083229065 -0.0211999341845512 0.180809259414673
0.018150000102818 0.0404499965831637 0.00564999974519014 16 -0.0535008683800697 0.190891295671463 0.0554961077868938 0.205868020653725
0.0209500001445413 0.0404499965831637 0.00564999974519014 16 -0.106251515448093 0.1813825070858 0.122549884021282 0.243325859308243
0.0237500001862645 0.0404499965831637 0.00564999974519014 16 -0.143819361925125 0.154721468687057 0.174267202615738 0.273846298456192
0.0265500002279878 0.0404499965831637 0.00564999974519014 16 -0.160395100712776 0.114903576672077 0.202414184808731 0.282667517662048
0.029350000269711 0.0404499965831637 0.00564999974519014 16 -0.159891605377197 0.0705966651439667 0.210494622588158 0.273600429296494
0.0321500003114343 0.0404499965831637 0.00564999974519014 16 -0.152315020561218 0.032247718423605 0.205650553107262 0.257937848567963
0.0349500003531575 0.0404499965831637 0.00564999974519014 16 -0.147349447011948 0.0146455271169543 0.201645448803902 0.250174403190613
-0.0350500006899238 0.0376499965414405 0.00564999974519014 16 0.0380607545375824 0.134595215320587 0.0157590303570032 0.140758097171783
-0.0322500006482005 0.0376499965414405 0.00564999974519014 16 0.0272327475249767 0.122696578502655 0.0243711676448584 0.12802354991436
-0.0294500006064773 0.0376499965414405 0.00564999974519014 16 0.00452857697382569 0.0958445966243744 0.0433538928627968 0.105291284620762
-0.026650000564754 0.0376499965414405 0.00564999974519014 16 -0.0213586334139109 0.0581319406628609 0.065236508846283 0.0899517387151718
-0.0238500005230308 0.0376499965414405 0.00564999974519014 16 -0.0423550866544247 0.0170126110315323 0.083058774471283 0.0947741642594337
-0.0210500004813075 0.0376499965414405 0.00564999974519014 16 -0.0546334087848663 -0.0242469273507595 0.0918043032288551 0.109547950327396
-0.0182500004395843 0.0376499965414405 0.00564999974519014 16 -0.057512067258358 -0.0606342405080795 0.0893788412213326 0.122363090515137
-0.015450000397861 0.0376499965414405 0.00564999974519014 16 -0.05031593516469 -0.0928879752755165 0.0735272988677025 0.128709495067596
-0.0126500003561378 0.0376499965414405 0.00564999974519014 16 -0.0348426289856434 -0.116936154663563 0.0421798564493656 0.129101559519768
-0.0098500003144145 0.0376499965414405 0.00564999974519014 16 -0.00956388376653194 -0.133310630917549 -0.00623296480625868 0.133798509836197
-0.00705000027269125 0.0376499965414405 0.00564999974519014 16 0.0203558895736933 -0.137744978070259 -0.0636390373110771 0.153094634413719
-0.004250000230968 0.0376499965414405 0.00564999974519014 16 0.0517047010362148 -0.13090755045414 -0.118012338876724 0.183676555752754