TITLE="DynamicStudio Exported Data"
VARIABLES= "X (m)[m]" "Y (m)[m]" "Z (m)[m]" "Status[-]" "U[-]" "V[-]" "W[-]" "Length[-]"
ZONE T="DynamicStudio Data" F=POINT
-0.0350500006899238 0.0600499968752265 0.00564999974519014 16 0.235701307654381 0.104296490550041 -0.279654413461685 0.380314946174622
-0.0322500006482005 0.0600499968752265 0.00564999974519014 16 0.233873665332794 0.0853296965360641 -0.279550671577454 0.374334931373596
-0.0294500006064773 0.0600499968752265 0.00564999974519014 16 0.231670007109642 0.0434174053370953 -0.279403895139694 0.365544259548187
-0.026650000564754 0.0600499968752265 0.00564999974519014 16 0.227019846439362 -0.0120948450639844 -0.281260699033737 0.361651599407196
-0.0238500005230308 0.0600499968752265 0.00564999974519014 16 0.22272689640522 -0.0760013908147812 -0.283515125513077 0.368462085723877
-0.0210500004813075 0.0600499968752265 0.00564999974519014 16 0.204574003815651 -0.148696392774582 -0.269897967576981 0.369873017072678
-0.0182500004395843 0.0600499968752265 0.00564999974519014 16 0.16423062980175 -0.227928161621094 -0.226805180311203 0.361058920621872
-0.015450000397861 0.0600499968752265 0.00564999974519014 16 0.0908661857247353 -0.301305890083313 -0.139614418148994 0.344287812709808
-0.0126500003561378 0.0600499968752265 0.00564999974519014 16 -0.0115700606256723 -0.347190827131271 -0.0130175771191716 0.347627371549606
-0.0098500003144145 0.0600499968752265 0.00564999974519014 16 -0.128476247191429 -0.339605689048767 0.137117624282837 0.388122946023941
-0.00705000027269125 0.0600499968752265 0.00564999974519014 16 -0.237750872969627 -0.264208346605301 0.279911130666733 0.45241767168045
-0.004250000230968 0.0600499968752265 0.00564999974519014 16 -0.31276524066925 -0.128532379865646 0.378313660621643 0.507409036159515
-0.00145000018924474 0.0600499968752265 0.00564999974519014 16 -0.335750430822372 0.0368398390710354 0.411213666200638 0.532148659229279
0.0013499998524785 0.0600499968752265 0.00564999974519014 16 -0.298855543136597 0.190180033445358 0.369675308465958 0.511998951435089
0.00414999989420176 0.0600499968752265 0.00564999974519014 16 -0.210724666714668 0.295552402734756 0.271949350833893 0.453555464744568
0.006949999935925 0.0600499968752265 0.00564999974519014 16 -0.0949554741382599 0.337352335453033 0.141831174492836 0.378073036670685
0.00974999997764826 0.0600499968752265 0.00564999974519014 16 0.0228113438934088 0.317790150642395 0.00855598039925098 0.318722665309906
0.0125500000193715 0.0600499968752265 0.00564999974519014 16 0.113884814083576 0.25826495885849 -0.0976138263940811 0.298662006855011
0.0153500000610948 0.0600499968752265 0.00564999974519014 16 0.172795817255974 0.180940359830856 -0.164393082261086 0.29937082529068
0.018150000102818 0.0600499968752265 0.00564999974519014 16 0.199011743068695 0.105153635144234 -0.190680176019669 0.294994711875916
0.0209500001445413 0.0600499968752265 0.00564999974519014 16 0.20902693271637 0.0384128019213676 -0.197418674826622 0.290072292089462
0.0237500001862645 0.0600499968752265 0.00564999974519014 16 0.207346111536026 -0.02378174290061 -0.200714960694313 0.289559096097946
0.0265500002279878 0.0600499968752265 0.00564999974519014 16 0.196696951985359 -0.0883176028728485 -0.204333201050758 0.297055125236511
0.029350000269711 0.0600499968752265 0.00564999974519014 16 0.176957756280899 -0.157276943325996 -0.204043284058571 0.312543988227844
0.0321500003114343 0.0600499968752265 0.00564999974519014 16 0.154442220926285 -0.217350870370865 -0.197349235415459 0.331723541021347
0.0349500003531575 0.0600499968752265 0.00564999974519014 16 0.1426170617342 -0.246263965964317 -0.190918162465096 0.342688351869583
-0.0350500006899238 0.0572499968335032 0.00564999974519014 16 0.19658637046814 0.106353737413883 -0.234025433659554 0.323612779378891
-0.0322500006482005 0.0572499968335032 0.00564999974519014 16 0.193852469325066 0.0867271572351456 -0.233792364597321 0.315846890211105
-0.0294500006064773 0.0572499968335032 0.00564999974519014 16 0.190454185009003 0.0440133661031723 -0.234213560819626 0.305067151784897
-0.026650000564754 0.0572499968335032 0.00564999974519014 16 0.18546150624752 -0.0124352481216192 -0.23700125515461 0.301197946071625
-0.0238500005230308 0.0572499968335032 0.00564999974519014 16 0.181955277919769 -0.0779814869165421 -0.240699723362923 0.311649143695831
-0.0210500004813075 0.0572499968335032 0.00564999974519014 16 0.168146431446075 -0.154172122478485 -0.232543796300888 0.325758934020996
-0.0182500004395843 0.0572499968335032 0.00564999974519014 16 0.137156262993813 -0.239047825336456 -0.199210941791534 0.340059846639633
-0.015450000397861 0.0572499968335032 0.00564999974519014 16 0.0784769505262375 -0.319767713546753 -0.128716394305229 0.353522181510925
-0.0126500003561378 0.0572499968335032 0.00564999974519014 16 -0.00432415073737502 -0.372407287359238 -0.0225813742727041 0.373116344213486
-0.0098500003144145 0.0572499968335032 0.00564999974519014 16 -0.101851053535938 -0.367377132177353 0.106121577322483 0.395728915929794
-0.00705000027269125 0.0572499968335032 0.00564999974519014 16 -0.195624992251396 -0.288691818714142 0.23353286087513 0.419701904058456
-0.004250000230968 0.0572499968335032 0.00564999974519014 16 -0.263630509376526 -0.142363637685776 0.325824052095413 0.442639529705048
-0.00145000018924474 0.0572499968335032 0.00564999974519014 16 -0.288553267717361 0.0366426333785057 0.362527817487717 0.464792519807816
0.0013499998524785 0.0572499968335032 0.00564999974519014 16 -0.260902613401413 0.204214617609978 0.331949800252914 0.469003677368164
0.00414999989420176 0.0572499968335032 0.00564999974519014 16 -0.187594071030617 0.318432837724686 0.249732568860054 0.446046382188797
0.006949999935925 0.0572499968335032 0.00564999974519014 16 -0.0876109749078751 0.363063156604767 0.135177671909332 0.397194594144821
0.00974999997764826 0.0572499968335032 0.00564999974519014 16 0.0138656692579389 0.339822083711624 0.0164036955684423 0.340500205755234
0.0125500000193715 0.0572499968335032 0.00564999974519014 16 0.0931093171238899 0.273730427026749 -0.0801932364702225 0.300047725439072
0.0153500000610948 0.0572499968335032 0.00564999974519014 16 0.143062382936478 0.1895372569561 -0.140180423855782 0.27575671672821
0.018150000102818 0.0572499968335032 0.00564999974519014 16 0.165736719965935 0.109561465680599 -0.163564175367355 0.257343381643295
0.0209500001445413 0.0572499968335032 0.00564999974519014 16 0.173694550991058 0.0404418930411339 -0.168114989995956 0.24508772790432
0.0237500001862645 0.0572499968335032 0.00564999974519014 16 0.172211766242981 -0.0224832613021135 -0.169070288538933 0.242378115653992
0.0265500002279878 0.0572499968335032 0.00564999974519014 16 0.162448585033417 -0.0888409912586212 -0.170305639505386 0.251567631959915
0.029350000269711 0.0572499968335032 0.00564999974519014 16 0.145459204912186 -0.160619825124741 -0.167874678969383 0.274114966392517
0.0321500003114343 0.0572499968335032 0.00564999974519014 16 0.126025527715683 -0.224084675312042 -0.161132290959358 0.303413897752762
0.0349500003531575 0.0572499968335032 0.00564999974519014 16 0.116137884557247 -0.254684090614319 -0.155977070331573 0.320438534021378
-0.0350500006899238 0.05444999679178 0.00564999974519014 16 0.100455313920975 0.108980916440487 -0.124378405511379 0.193489268422127
-0.0322500006482005 0.05444999679178 0.00564999974519014 16 0.0976513102650642 0.0886635929346085 -0.125470504164696 0.182043567299843
-0.0294500006064773 0.05444999679178 0.00564999974519014 16 0.0933078601956367 0.0440423712134361 -0.127844274044037 0.164287090301514
-0.026650000564754 0.05444999679178 0.00564999974519014 16 0.0881989896297455 -0.0146873351186514 -0.133599177002907 0.160759195685387
-0.0238500005230308 0.05444999679178 0.00564999974519014 16 0.0865982174873352 -0.0838145762681961 -0.141114756464958 0.18557345867157
-0.0210500004813075 0.05444999679178 0.00564999974519014 16 0.0816975012421608 -0.165821880102158 -0.144553944468498 0.234664067625999
-0.0182500004395843 0.05444999679178 0.00564999974519014 16 0.0712149664759636 -0.259082794189453 -0.133528470993042 0.30004221200943
-0.015450000397861 0.05444999679178 0.00564999974519014 16 0.0464124716818333 -0.349318563938141 -0.100910373032093 0.366552144289017
-0.0126500003561378 0.05444999679178 0.00564999974519014 16 0.00864792987704277 -0.410184115171432 -0.043048232793808 0.412527501583099
-0.0098500003144145 0.05444999679178 0.00564999974519014 16 -0.0423705875873566 -0.407712072134018 0.0351251848042011 0.411409974098206
-0.00705000027269125 0.05444999679178 0.00564999974519014 16 -0.0979125574231148 -0.324505388736725 0.123191229999065 0.360647588968277
-0.004250000230968 0.05444999679178 0.00564999974519014 16 -0.146187752485275 -0.163207516074181 0.196891039609909 0.2945736348629
-0.00145000018924474 0.05444999679178 0.00564999974519014 16 -0.173032686114311 0.0352936163544655 0.238703414797783 0.296926379203796
0.0013499998524785 0.05444999679178 0.00564999974519014 16 -0.166185572743416 0.224356144666672 0.232324406504631 0.363218873739243
0.00414999989420176 0.05444999679178 0.00564999974519014 16 -0.127423629164696 0.352778166532516 0.186334654688835 0.418819546699524
0.006949999935925 0.05444999679178 0.00564999974519014 16 -0.0662815570831299 0.403272032737732 0.110937312245369 0.423472166061401
0.00974999997764826 0.05444999679178 0.00564999974519014 16 -0.00342407030984759 0.375870198011398 0.029632331803441 0.377052009105682
0.0125500000193715 0.05444999679178 0.00564999974519014 16 0.0461864918470383 0.300722241401672 -0.038498193025589 0.306674361228943
0.0153500000610948 0.05444999679178 0.00564999974519014 16 0.0751418173313141 0.206124037504196 -0.079016275703907 0.233188733458519
0.018150000102818 0.05444999679178 0.00564999974519014 16 0.0880485251545906 0.11887913197279 -0.0932282730937004 0.174860805273056
0.0209500001445413 0.05444999679178 0.00564999974519014 16 0.0915134847164154 0.0447506457567215 -0.0928512662649155 0.137835755944252
0.0237500001862645 0.05444999679178 0.00564999974519014 16 0.0901749730110168 -0.0210526417940855 -0.0893803313374519 0.128699585795403
0.0265500002279878 0.05444999679178 0.00564999974519014 16 0.0827685967087746 -0.0915563777089119 -0.0856254398822784 0.150216266512871
0.029350000269711 0.05444999679178 0.00564999974519014 16 0.071840800344944 -0.168030053377151 -0.0792433619499207 0.199185103178024
0.0321500003114343 0.05444999679178 0.00564999974519014 16 0.059413094073534 -0.236432641744614 -0.0713164284825325 0.254000663757324
0.0349500003531575 0.05444999679178 0.00564999974519014 16 0.053653072565794 -0.269296705722809 -0.0657460018992424 0.282350689172745
-0.0350500006899238 0.0516499967500567 0.00564999974519014 16 -0.0154968425631523 0.108971625566483 0.0169998966157436 0.111373081803322
-0.0322500006482005 0.0516499967500567 0.00564999974519014 16 -0.0194993857294321 0.0880890488624573 0.0149679007008672 0.0914546027779579
-0.0294500006064773 0.0516499967500567 0.00564999974519014 16 -0.0254914443939924 0.0410809181630611 0.0108171366155148 0.0495425686240196
-0.026650000564754 0.0516499967500567 0.00564999974519014 16 -0.0305274091660976 -0.020261874422431 0.00104154541622847 0.0366544835269451
-0.0238500005230308 0.0516499967500567 0.00564999974519014 16 -0.0294933784753084 -0.092509351670742 -0.0122199896723032 0.0978630036115646
-0.0210500004813075 0.0516499967500567 0.00564999974519014 16 -0.0230875257402658 -0.17606557905674 -0.0310083143413067 0.180259928107262
-0.0182500004395843 0.0516499967500567 0.00564999974519014 16 -0.00981605891138315 -0.269300490617752 -0.0480839572846889 0.273735582828522
-0.015450000397861 0.0516499967500567 0.00564999974519014 16 0.00547688687220216 -0.357481211423874 -0.062266543507576 0.362904846668243
-0.0126500003561378 0.0516499967500567 0.00564999974519014 16 0.0205746758729219 -0.4161456823349 -0.0653016120195389 0.421740233898163
-0.0098500003144145 0.0516499967500567 0.00564999974519014 16 0.0264971219003201 -0.41168287396431 -0.0520026758313179 0.415799409151077
-0.00705000027269125 0.0516499967500567 0.00564999974519014 16 0.0198575835675001 -0.328307658433914 -0.0181079041212797 0.329405725002289
-0.004250000230968 0.0516499967500567 0.00564999974519014 16 0.000613367417827249 -0.165582224726677 0.0268182829022408 0.167741075158119
-0.00145000018924474 0.0516499967500567 0.00564999974519014 16 -0.0231345258653164 0.0350658483803272 0.0691785141825676 0.080935075879097
0.0013499998524785 0.0516499967500567 0.00564999974519014 16 -0.0395183861255646 0.229562804102898 0.0923626646399498 0.250582605600357
0.00414999989420176 0.0516499967500567 0.00564999974519014 16 -0.043290052562952 0.363055825233459 0.0942338928580284 0.377575933933258
0.006949999935925 0.0516499967500567 0.00564999974519014 16 -0.0335042737424374 0.417278409004211 0.0741944685578346 0.425145417451859
0.00974999997764826 0.0516499967500567 0.00564999974519014 16 -0.0210025180131197 0.39030659198761 0.0454414188861847 0.393503844738007
0.0125500000193715 0.0516499967500567 0.00564999974519014 16 -0.011662277393043 0.313227415084839 0.0187149494886398 0.31400266289711
0.0153500000610948 0.0516499967500567 0.00564999974519014 16 -0.010234834626317 0.215410694479942 0.00647781603038311 0.215750977396965
0.018150000102818 0.0516499967500567 0.00564999974519014 16 -0.0111934645101428 0.124936856329441 0.00698238890618086 0.125631466507912
0.0209500001445413 0.0516499967500567 0.00564999974519014 16 -0.0129092745482922 0.0474652834236622 0.014187048189342 0.0511944815516472
0.0237500001862645 0.0516499967500567 0.00564999974519014 16 -0.0134702185168862 -0.0210342649370432 0.0215211696922779 0.0329704098403454
0.0265500002279878 0.0516499967500567 0.00564999974519014 16 -0.0158810168504715 -0.0939905196428299 0.028131490573287 0.0993871465325356
0.029350000269711 0.0516499967500567 0.00564999974519014 16 -0.0181311462074518 -0.171473875641823 0.0345950908958912 0.175865992903709
0.0321500003114343 0.0516499967500567 0.00564999974519014 16 -0.0205429438501596 -0.240062549710274 0.0388237535953522 0.244047790765762
0.0349500003531575 0.0516499967500567 0.00564999974519014 16 -0.0206566695123911 -0.27238005399704 0.040303748100996 0.276119500398636
-0.0350500006899238 0.0488499967083335 0.00564999974519014 16 -0.113103911280632 0.102706283330917 0.144498020410538 0.210287317633629
-0.0322500006482005 0.0488499967083335 0.00564999974519014 16 -0.117761701345444 0.0812051370739937 0.142380729317665 0.201827570796013
-0.0294500006064773 0.0488499967083335 0.00564999974519014 16 -0.125069409608841 0.0325164794921875 0.137045159935951 0.188364148139954
-0.026650000564754 0.0488499967083335 0.00564999974519014 16 -0.129549756646156 -0.0298818573355675 0.12279374152422 0.180981680750847
-0.0238500005230308 0.0488499967083335 0.00564999974519014 16 -0.126263454556465 -0.101421467959881 0.102357946336269 0.191587895154953
-0.0210500004813075 0.0488499967083335 0.00564999974519014 16 -0.110511235892773 -0.1791041046381 0.068324089050293 0.221267238259315
-0.0182500004395843 0.0488499967083335 0.00564999974519014 16 -0.078802227973938 -0.260829150676727 0.0256604366004467 0.273678809404373
-0.015450000397861 0.0488499967083335 0.00564999974519014 16 -0.0318678244948387 -0.332718580961227 -0.0284034498035908 0.335445940494537
-0.0126500003561378 0.0488499967083335 0.00564999974519014 16 0.0246063768863678 -0.376301199197769 -0.08267792314291 0.386061787605286
-0.0098500003144145 0.0488499967083335 0.00564999974519014 16 0.0766652598977089 -0.365146070718765 -0.124057725071907 0.393191456794739
-0.00705000027269125 0.0488499967083335 0.00564999974519014 16 0.111488729715347 -0.288158893585205 -0.13877460360527 0.338708847761154
-0.004250000230968 0.0488499967083335 0.00564999974519014 16 0.118906207382679 -0.143851205706596 -0.121701039373875 0.222807094454765
-0.00145000018924474 0.0488499967083335 0.00564999974519014 16 0.101199418306351 0.0338282249867916 -0.0830502882599831 0.13521471619606
0.0013499998524785 0.0488499967083335 0.00564999974519014 16 0.0675707012414932 0.208726793527603 -0.0359548442065716 0.222318291664124
0.00414999989420176 0.0488499967083335 0.00564999974519014 16 0.0301795452833176 0.332438975572586 0.00674111442640424 0.333874106407166
0.006949999935925 0.0488499967083335 0.00564999974519014 16 -0.00333773298189044 0.386759757995605 0.0371005497872829 0.388549506664276
0.00974999997764826 0.0488499967083335 0.00564999974519014 16 -0.033032514154911 0.367670446634293 0.0579366907477379 0.373670160770416
0.0125500000193715 0.0488499967083335 0.00564999974519014 16 -0.0594294369220734 0.30070436000824 0.0734723582863808 0.315203368663788
0.0153500000610948 0.0488499967083335 0.00564999974519014 16 -0.0821536630392075 0.211828783154488 0.0912744179368019 0.244850322604179
0.018150000102818 0.0488499967083335 0.00564999974519014 16 -0.0963748395442963 0.125692278146744 0.108011282980442 0.191710963845253
0.0209500001445413 0.0488499967083335 0.00564999974519014 16 -0.101817756891251 0.0486073084175587 0.121252819895744 0.165625393390656
0.0237500001862645 0.0488499967083335 0.00564999974519014 16 -0.100411832332611 -0.0214749034494162 0.129092514514923 0.164950251579285
0.0265500002279878 0.0488499967083335 0.00564999974519014 16 -0.0960081443190575 -0.0937913507223129 0.133332103490829 0.189187303185463
0.029350000269711 0.0488499967083335 0.00564999974519014 16 -0.0895868018269539 -0.167033150792122 0.135374695062637 0.232920974493027
0.0321500003114343 0.0488499967083335 0.00564999974519014 16 -0.0825666189193726 -0.229497626423836 0.134750366210938 0.278646856546402
0.0349500003531575 0.0488499967083335 0.00564999974519014 16 -0.0783676505088806 -0.258575946092606 0.133806139230728 0.301508039236069
-0.0350500006899238 0.0460499966666102 0.00564999974519014 16 -0.154112055897713 0.0864172950387001 0.219941139221191 0.282121568918228
-0.0322500006482005 0.0460499966666102 0.00564999974519014 16 -0.159258216619492 0.0656482502818108 0.21758034825325 0.277514100074768
-0.0294500006064773 0.0460499966666102 0.00564999974519014 16 -0.167807921767235 0.018402311950922 0.211056381464005 0.270264595746994
-0.026650000564754 0.0460499966666102 0.00564999974519014 16 -0.172021806240082 -0.0416888892650604 0.193383514881134 0.262157678604126
-0.0238500005230308 0.0460499966666102 0.00564999974519014 16 -0.167455792427063 -0.107510067522526 0.166589021682739 0.259522169828415
-0.0210500004813075 0.0460499966666102 0.00564999974519014 16 -0.147336453199387 -0.172899559140205 0.122548222541809 0.25810918211937
-0.0182500004395843 0.0460499966666102 0.00564999974519014 16 -0.108395114541054 -0.234532296657562 0.064791813492775 0.266369819641113
-0.015450000397861 0.0460499966666102 0.00564999974519014 16 -0.0493675284087658 -0.281916230916977 -0.00995582994073629 0.286379158496857
-0.0126500003561378 0.0460499966666102 0.00564999974519014 16 0.0228924136608839 -0.303923964500427 -0.0906750783324242 0.317987114191055
-0.0098500003144145 0.0460499966666102 0.00564999974519014 16 0.0931533426046371 -0.284792006015778 -0.15933732688427 0.339370608329773
-0.00705000027269125 0.0460499966666102 0.00564999974519014 16 0.145906701683998 -0.218822911381721 -0.199688985943794 0.33022403717041
-0.004250000230968 0.0460499966666102 0.00564999974519014 16 0.166335269808769 -0.105881936848164 -0.198226228356361 0.279592633247375
-0.00145000018924474 0.0460499966666102 0.00564999974519014 16 0.153665214776993 0.0321530513465405 -0.163395822048187 0.226594373583794
0.0013499998524785 0.0460499966666102 0.00564999974519014 16 0.11334540694952 0.169901788234711 -0.104083724319935 0.229231789708138
0.00414999989420176 0.0460499966666102 0.00564999974519014 16 0.0612707249820232 0.272184491157532 -0.039255253970623 0.281743615865707
0.006949999935925 0.0460499966666102 0.00564999974519014 16 0.0070575550198555 0.322279930114746 0.0202437955886126 0.322992235422134
0.00974999997764826 0.0460499966666102 0.00564999974519014 16 -0.0424206890165806 0.314834505319595 0.0700383484363556 0.325308561325073
0.0125500000193715 0.0460499966666102 0.00564999974519014 16 -0.0867476463317871 0.266392409801483 0.11120517551899 0.301424384117126
0.0153500000610948 0.0460499966666102 0.00564999974519014 16 -0.121131859719753 0.195911690592766 0.147083342075348 0.273290723562241
0.018150000102818 0.0460499966666102 0.00564999974519014 16 -0.141790762543678 0.121386222541332 0.173266962170601 0.254677593708038
0.0209500001445413 0.0460499966666102 0.00564999974519014 16 -0.147114247083664 0.0496323220431805 0.18863146007061 0.244310855865479
0.0237500001862645 0.0460499966666102 0.00564999974519014 16 -0.141731575131416 -0.0187286548316479 0.193330317735672 0.240447953343391
0.0265500002279878 0.0460499966666102 0.00564999974519014 16 -0.129602268338203 -0.0867847949266434 0.19112041592598 0.246688783168793
0.029350000269711 0.0460499966666102 0.00564999974519014 16 -0.114798456430435 -0.15142060816288 0.184521019458771 0.264867693185806
0.0321500003114343 0.0460499966666102 0.00564999974519014 16 -0.099868007004261 -0.203201591968536 0.175182431936264 0.286275029182434
0.0349500003531575 0.0460499966666102 0.00564999974519014 16 -0.0922909080982208 -0.226555347442627 0.169502556324005 0.29761728644371
-0.0350500006899238 0.043249996624887 0.00564999974519014 16 -0.142418205738068 0.0642595440149307 0.235743969678879 0.282820522785187
-0.0322500006482005 0.043249996624887 0.00564999974519014 16 -0.147464483976364 0.0448631010949612 0.233965829014778 0.280175805091858
-0.0294500006064773 0.043249996624887 0.00564999974519014 16 -0.156531527638435 0.00184059573803097 0.227256685495377 0.275954902172089
-0.026650000564754 0.043249996624887 0.00564999974519014 16 -0.160915717482567 -0.0520380139350891 0.207799524068832 0.26792249083519
-0.0238500005230308 0.043249996624887 0.00564999974519014 16 -0.15644682943821 -0.10763368755579 0.176171272993088 0.259030759334564
-0.0210500004813075 0.043249996624887 0.00564999974519014 16 -0.137462630867958 -0.158503159880638 0.12812066078186 0.245833545923233
-0.0182500004395843 0.043249996624887 0.00564999974519014 16 -0.101365715265274 -0.200412511825562 0.0663745328783989 0.234191730618477
-0.015450000397861 0.043249996624887 0.00564999974519014 16 -0.0476117767393589 -0.227042675018311 -0.00871261954307556 0.232144713401794
-0.0126500003561378 0.043249996624887 0.00564999974519014 16 0.0182151347398758 -0.231949046254158 -0.0894992500543594 0.249283507466316
-0.0098500003144145 0.043249996624887 0.00564999974519014 16 0.0819971114397049 -0.208269253373146 -0.15770460665226 0.273807138204575
-0.00705000027269125 0.043249996624887 0.00564999974519014 16 0.13011859357357 -0.15399457514286 -0.199669450521469 0.283748239278793
-0.004250000230968 0.043249996624887 0.00564999974519014 16 0.148021250963211 -0.0712133347988129 -0.200275748968124 0.2590212225914
-0.00145000018924474 0.043249996624887 0.00564999974519014 16 0.13508528470993 0.0281693208962679 -0.166802972555161 0.216482743620872
0.0013499998524785 0.043249996624887 0.00564999974519014 16 0.0961203128099442 0.128353983163834 -0.10728570073843 0.192935436964035
0.00414999989420176 0.043249996624887 0.00564999974519014 16 0.0468607060611248 0.207695320248604 -0.0402129031717777 0.216680288314819
0.006949999935925 0.043249996624887 0.00564999974519014 16 -0.00461771013215184 0.25226217508316 0.0243422389030457 0.253475993871689
0.00974999997764826 0.043249996624887 0.00564999974519014 16 -0.0515907965600491 0.25610563158989 0.0807542726397514 0.273446440696716
0.0125500000193715 0.043249996624887 0.00564999974519014 16 -0.0949015915393829 0.227096900343895 0.128987699747086 0.27787971496582
0.0153500000610948 0.043249996624887 0.00564999974519014 16 -0.128183051943779 0.177215084433556 0.169033542275429 0.276420712471008
0.018150000102818 0.043249996624887 0.00564999974519014 16 -0.147583782672882 0.117590472102165 0.195978254079819 0.272058755159378
0.0209500001445413 0.043249996624887 0.00564999974519014 16 -0.149792671203613 0.0545542240142822 0.20881213247776 0.262709945440292
0.0237500001862645 0.043249996624887 0.00564999974519014 16 -0.139733538031578 -0.0089685395359993 0.207341656088829 0.250192850828171
0.0265500002279878 0.043249996624887 0.00564999974519014 16 -0.121657758951187 -0.0710970535874367 0.196590483188629 0.241874381899834
0.029350000269711 0.043249996624887 0.00564999974519014 16 -0.101017393171787 -0.126670509576797 0.18083430826664 0.24279822409153
0.0321500003114343 0.043249996624887 0.00564999974519014 16 -0.0819442421197891 -0.168758794665337 0.165114134550095 0.24991412460804
0.0349500003531575 0.043249996624887 0.00564999974519014 16 -0.073052279651165 -0.187081262469292 0.157725185155869 0.255368888378143
-0.0350500006899238 0.0404499965831637 0.00564999974519014 16 -0.102355852723122 0.0386860184371471 0.210747301578522 0.237461060285568
-0.0322500006482005 0.0404499965831637 0.00564999974519014 16 -0.106616780161858 0.0222126096487045 0.208900660276413 0.235584422945976
-0.0294500006064773 0.0404499965831637 0.00564999974519014 16 -0.114467561244965 -0.0140911024063826 0.201685518026352 0.232332587242126
-0.026650000564754 0.0404499965831637 0.00564999974519014 16 -0.118228808045387 -0.059500478208065 0.181824266910553 0.224896475672722
-0.0238500005230308 0.0404499965831637 0.00564999974519014 16 -0.113986492156982 -0.104086570441723 0.149074152112007 0.214592725038528
-0.0210500004813075 0.0404499965831637 0.00564999974519014 16 -0.0988440215587616 -0.142040029168129 0.103846356272697 0.201815694570541
-0.0182500004395843 0.0404499965831637 0.00564999974519014 16 -0.0706664994359016 -0.168882057070732 0.0482386574149132 0.189319491386414
-0.015450000397861 0.0404499965831637 0.00564999974519014 16 -0.0303308572620153 -0.181833505630493 -0.0150685450062156 0.184960648417473
-0.0126500003561378 0.0404499965831637 0.00564999974519014 16 0.0186554044485092 -0.176831111311913 -0.0821328610181808 0.19586493074894
-0.0098500003144145 0.0404499965831637 0.00564999974519014 16 0.0643413811922073 -0.151931330561638 -0.136942744255066 0.21442075073719
-0.00705000027269125 0.0404499965831637 0.00564999974519014 16 0.0963065102696419 -0.107265792787075 -0.16845041513443 0.221712499856949
-0.004250000230968 0.0404499965831637 0.00564999974519014 16 0.103890016674995 -0.046213660389185 -0.165392577648163 0.200707599520683
-0.00145000018924474 0.0404499965831637 0.00564999974519014 16 0.0875875726342201 0.024756571277976 -0.133265897631645 0.161382377147675
0.0013499998524785 0.0404499965831637 0.00564999974519014 16 0.0535661578178406 0.0966065973043442 -0.0812207534909248 0.137109369039536
0.00414999989420176 0.0404499965831637 0.00564999974519014 16 0.0142711829394102 0.157108157873154 -0.0227203071117401 0.159382715821266
0.006949999935925 0.0404499965831637 0.00564999974519014 16 -0.0243157222867012 0.195856466889381 0.0338242314755917 0.200237572193146
0.00974999997764826 0.0404499965831637 0.00564999974519014 16 -0.0590948946774006 0.207795485854149 0.0842768549919128 0.231891706585884
0.0125500000193715 0.0404499965831637 0.00564999974519014 16 -0.0920314863324165 0.194722980260849 0.127538293600082 0.250305503606796
0.0153500000610948 0.0404499965831637 0.00564999974519014 16 -0.117504365742207 0.163032352924347 0.161188274621964 0.257620811462402
0.018150000102818 0.0404499965831637 0.00564999974519014 16 -0.131410777568817 0.117931850254536 0.182006925344467 0.253580838441849
0.0209500001445413 0.0404499965831637 0.00564999974519014 16 -0.12987445294857 0.0647435411810875 0.189420700073242 0.238619565963745
0.0237500001862645 0.0404499965831637 0.00564999974519014 16 -0.116433598101139 0.00759123312309384 0.183028787374496 0.217057466506958
0.0265500002279878 0.0404499965831637 0.00564999974519014 16 -0.0952054858207703 -0.0488011203706264 0.166746079921722 0.198115855455399
0.029350000269711 0.0404499965831637 0.00564999974519014 16 -0.0708859041333199 -0.0976651459932327 0.14393612742424 0.187832117080688
0.0321500003114343 0.0404499965831637 0.00564999974519014 16 -0.0494798459112644 -0.133257061243057 0.122327946126461 0.18753619492054
0.0349500003531575 0.0404499965831637 0.00564999974519014 16 -0.0392236039042473 -0.148221537470818 0.111855804920197 0.189788922667503
-0.0350500006899238 0.0376499965414405 0.00564999974519014 16 -0.0624068900942802 0.0161477290093899 0.169109016656876 0.180978536605835
-0.0322500006482005 0.0376499965414405 0.00564999974519014 16 -0.0655114352703094 0.00282167620025575 0.167726159095764 0.180088236927986
-0.0294500006064773 0.0376499965414405 0.00564999974519014 16 -0.0712062641978264 -0.026035251095891 0.161656111478806 0.178552135825157
-0.026650000564754 0.0376499965414405 0.00564999974519014 16 -0.073515385389328 -0.0621043406426907 0.143152713775635 0.172493934631348
-0.0238500005230308 0.0376499965414405 0.00564999974519014 16 -0.0692446529865265 -0.0967396944761276 0.112446442246437 0.163699701428413
-0.0210500004813075 0.0376499965414405 0.00564999974519014 16 -0.0574973896145821 -0.12532514333725 0.072200819849968 0.155644789338112
-0.0182500004395843 0.0376499965414405 0.00564999974519014 16 -0.0369549989700317 -0.143927171826363 0.0260251238942146 0.150857582688332
-0.015450000397861 0.0376499965414405 0.00564999974519014 16 -0.00940161384642124 -0.150653570890427 -0.0230027511715889 0.152689278125763
-0.0126500003561378 0.0376499965414405 0.00564999974519014 16 0.0231892932206392 -0.142457187175751 -0.0726575180888176 0.161588698625565
-0.0098500003144145 0.0376499965414405 0.00564999974519014 16 0.0520505085587502 -0.118492044508457 -0.112543970346451 0.171510249376297
-0.00705000027269125 0.0376499965414405 0.00564999974519014 16 0.0690489783883095 -0.0801952332258224 -0.133136212825775 0.170071423053741
-0.004250000230968 0.0376499965414405 0.00564999974519014 16 0.067545160651207 -0.0315149687230587 -0.128062978386879 0.148174449801445