TITLE="DynamicStudio Exported Data"
VARIABLES= "X (m)[m]" "Y (m)[m]" "Z (m)[m]" "Status[-]" "U[-]" "V[-]" "W[-]" "Length[-]"
ZONE T="DynamicStudio Data" F=POINT
-0.0350500006899238 0.0600499968752265 0.00564999974519014 16 0.289439290761948 0.160977482795715 -0.376664400100708 0.501562476158142
-0.0322500006482005 0.0600499968752265 0.00564999974519014 16 0.288851708173752 0.132039591670036 -0.372762829065323 0.489716112613678
-0.0294500006064773 0.0600499968752265 0.00564999974519014 16 0.285158812999725 0.0693646371364594 -0.356548517942429 0.461794167757034
-0.026650000564754 0.0600499968752265 0.00564999974519014 16 0.272216886281967 -0.000893726479262114 -0.33122456073761 0.428733646869659
-0.0238500005230308 0.0600499968752265 0.00564999974519014 16 0.248329296708107 -0.0712248384952545 -0.295893400907516 0.392801880836487
-0.0210500004813075 0.0600499968752265 0.00564999974519014 16 0.214765429496765 -0.141251772642136 -0.261697143316269 0.366826444864273
-0.0182500004395843 0.0600499968752265 0.00564999974519014 16 0.166476771235466 -0.216732501983643 -0.215202033519745 0.347849696874619
-0.015450000397861 0.0600499968752265 0.00564999974519014 16 0.106289140880108 -0.28886803984642 -0.155235514044762 0.344732046127319
-0.0126500003561378 0.0600499968752265 0.00564999974519014 16 0.0260623600333929 -0.337778329849243 -0.0685816034674644 0.345654278993607
-0.0098500003144145 0.0600499968752265 0.00564999974519014 16 -0.0643652528524399 -0.342537701129913 0.0313949584960938 0.349943727254868
-0.00705000027269125 0.0600499968752265 0.00564999974519014 16 -0.159147053956985 -0.289671123027802 0.132278874516487 0.355998396873474
-0.004250000230968 0.0600499968752265 0.00564999974519014 16 -0.239880353212357 -0.182321295142174 0.220654785633087 0.373459726572037
-0.00145000018924474 0.0600499968752265 0.00564999974519014 16 -0.289167821407318 -0.0361681282520294 0.278168231248856 0.402869373559952
0.0013499998524785 0.0600499968752265 0.00564999974519014 16 -0.290472149848938 0.120644673705101 0.296129286289215 0.431997388601303
0.00414999989420176 0.0600499968752265 0.00564999974519014 16 -0.234940335154533 0.256904989480972 0.25451523065567 0.431248337030411
0.006949999935925 0.0600499968752265 0.00564999974519014 16 -0.137033849954605 0.347366452217102 0.167486280202866 0.409259557723999
0.00974999997764826 0.0600499968752265 0.00564999974519014 16 -0.0197423007339239 0.378835141658783 0.0501553229987621 0.382650464773178
0.0125500000193715 0.0600499968752265 0.00564999974519014 16 0.0854374244809151 0.355451464653015 -0.0572529733181 0.370031327009201
0.0153500000610948 0.0600499968752265 0.00564999974519014 16 0.164412751793861 0.291619449853897 -0.140936627984047 0.363230764865875
0.018150000102818 0.0600499968752265 0.00564999974519014 16 0.211145743727684 0.203941598534584 -0.187910720705986 0.34854719042778
0.0209500001445413 0.0600499968752265 0.00564999974519014 16 0.232517227530479 0.110666424036026 -0.209780037403107 0.332143038511276
0.0237500001862645 0.0600499968752265 0.00564999974519014 16 0.235347151756287 0.0178916342556477 -0.214397192001343 0.318864464759827
0.0265500002279878 0.0600499968752265 0.00564999974519014 16 0.224806427955627 -0.0655583515763283 -0.212392643094063 0.316143095493317
0.029350000269711 0.0600499968752265 0.00564999974519014 16 0.206259861588478 -0.139213889837265 -0.208800941705704 0.324840694665909
0.0321500003114343 0.0600499968752265 0.00564999974519014 16 0.186201259493828 -0.192530661821365 -0.203720778226852 0.336513161659241
0.0349500003531575 0.0600499968752265 0.00564999974519014 16 0.175188481807709 -0.216291904449463 -0.199610829353333 0.34251669049263
-0.0350500006899238 0.0572499968335032 0.00564999974519014 16 0.251158952713013 0.167683705687523 -0.339594542980194 0.454448103904724
-0.0322500006482005 0.0572499968335032 0.00564999974519014 16 0.250247478485107 0.135838583111763 -0.335757851600647 0.440237730741501
-0.0294500006064773 0.0572499968335032 0.00564999974519014 16 0.245629638433456 0.0681320130825043 -0.320390284061432 0.409421324729919
-0.026650000564754 0.0572499968335032 0.00564999974519014 16 0.233080208301544 -0.00674056354910135 -0.295702069997787 0.376578718423843
-0.0238500005230308 0.0572499968335032 0.00564999974519014 16 0.210861101746559 -0.0800544172525406 -0.2620550096035 0.345751255750656
-0.0210500004813075 0.0572499968335032 0.00564999974519014 16 0.180733144283295 -0.152570366859436 -0.229374468326569 0.329476594924927
-0.0182500004395843 0.0572499968335032 0.00564999974519014 16 0.139733403921127 -0.230806455016136 -0.188859343528748 0.329340100288391
-0.015450000397861 0.0572499968335032 0.00564999974519014 16 0.0900764539837837 -0.306946992874146 -0.137987375259399 0.348383039236069
-0.0126500003561378 0.0572499968335032 0.00564999974519014 16 0.0261391717940569 -0.36001580953598 -0.0673045143485069 0.367184609174728
-0.0098500003144145 0.0572499968335032 0.00564999974519014 16 -0.0464859046041965 -0.367656737565994 0.0151134300976992 0.370891928672791
-0.00705000027269125 0.0572499968335032 0.00564999974519014 16 -0.12377405166626 -0.313789069652557 0.0982210785150528 0.351327449083328
-0.004250000230968 0.0572499968335032 0.00564999974519014 16 -0.192939221858978 -0.199571996927261 0.17403008043766 0.32762935757637
-0.00145000018924474 0.0572499968335032 0.00564999974519014 16 -0.237938195466995 -0.0420172102749348 0.22698986530304 0.33151838183403
0.0013499998524785 0.0572499968335032 0.00564999974519014 16 -0.242777973413467 0.129372909665108 0.248036757111549 0.370406180620193
0.00414999989420176 0.0572499968335032 0.00564999974519014 16 -0.198295965790749 0.278591424226761 0.218265920877457 0.405677795410156
0.006949999935925 0.0572499968335032 0.00564999974519014 16 -0.116272553801537 0.377990484237671 0.146793276071548 0.421834528446198
0.00974999997764826 0.0572499968335032 0.00564999974519014 16 -0.0174711793661118 0.411873459815979 0.0479863248765469 0.415027320384979
0.0125500000193715 0.0572499968335032 0.00564999974519014 16 0.0707795545458794 0.385042250156403 -0.0430738143622875 0.393856108188629
0.0153500000610948 0.0572499968335032 0.00564999974519014 16 0.13619102537632 0.313437074422836 -0.112339474260807 0.35973733663559
0.018150000102818 0.0572499968335032 0.00564999974519014 16 0.174225449562073 0.216739445924759 -0.148740828037262 0.315363824367523
0.0209500001445413 0.0572499968335032 0.00564999974519014 16 0.191252455115318 0.114946082234383 -0.163883194327354 0.276853382587433
0.0237500001862645 0.0572499968335032 0.00564999974519014 16 0.192973673343658 0.016159787774086 -0.164548054337502 0.254118174314499
0.0265500002279878 0.0572499968335032 0.00564999974519014 16 0.183568939566612 -0.0713067129254341 -0.161715179681778 0.254821509122849
0.029350000269711 0.0572499968335032 0.00564999974519014 16 0.166956663131714 -0.146958619356155 -0.157352089881897 0.272453755140305
0.0321500003114343 0.0572499968335032 0.00564999974519014 16 0.149551749229431 -0.201671734452248 -0.153728127479553 0.294396936893463
0.0349500003531575 0.0572499968335032 0.00564999974519014 16 0.14018502831459 -0.225867003202438 -0.151021838188171 0.305737376213074
-0.0350500006899238 0.05444999679178 0.00564999974519014 16 0.156831339001656 0.175923019647598 -0.246431410312653 0.340988874435425
-0.0322500006482005 0.05444999679178 0.00564999974519014 16 0.155271396040916 0.139956131577492 -0.241410776972771 0.319336950778961
-0.0294500006064773 0.05444999679178 0.00564999974519014 16 0.149057030677795 0.0639695450663567 -0.225430235266685 0.277720868587494
-0.026650000564754 0.05444999679178 0.00564999974519014 16 0.137378260493279 -0.0195579677820206 -0.201671198010445 0.24479903280735
-0.0238500005230308 0.05444999679178 0.00564999974519014 16 0.118877038359642 -0.0989034026861191 -0.172289803624153 0.231511145830154
-0.0210500004813075 0.05444999679178 0.00564999974519014 16 0.0968728810548782 -0.175686493515968 -0.14570015668869 0.247948855161667
-0.0182500004395843 0.05444999679178 0.00564999974519014 16 0.0715562775731087 -0.257202118635178 -0.118593104183674 0.292125940322876
-0.015450000397861 0.05444999679178 0.00564999974519014 16 0.0470404401421547 -0.337330520153046 -0.0901121199131012 0.352313607931137
-0.0126500003561378 0.05444999679178 0.00564999974519014 16 0.0203780364245176 -0.394349277019501 -0.0555079318583012 0.398757755756378
-0.0098500003144145 0.05444999679178 0.00564999974519014 16 -0.00943936873227358 -0.403991848230362 -0.0157745890319347 0.404409885406494
-0.00705000027269125 0.05444999679178 0.00564999974519014 16 -0.045198131352663 -0.34776908159256 0.0248854830861092 0.35157573223114
-0.004250000230968 0.05444999679178 0.00564999974519014 16 -0.0845533162355423 -0.223268568515778 0.0685123279690742 0.248378857970238
-0.00145000018924474 0.05444999679178 0.00564999974519014 16 -0.116802990436554 -0.0494416132569313 0.106673575937748 0.165730699896812
0.0013499998524785 0.05444999679178 0.00564999974519014 16 -0.128160089254379 0.143182083964348 0.131324365735054 0.232749238610268
0.00414999989420176 0.05444999679178 0.00564999974519014 16 -0.109160788357258 0.311866462230682 0.126366063952446 0.353758603334427
0.006949999935925 0.05444999679178 0.00564999974519014 16 -0.0657221153378487 0.425429433584213 0.0917344242334366 0.440141797065735
0.00974999997764826 0.05444999679178 0.00564999974519014 16 -0.012397762387991 0.463663578033447 0.0393968634307384 0.465499460697174
0.0125500000193715 0.05444999679178 0.00564999974519014 16 0.0341497622430325 0.431379348039627 -0.00775303551927209 0.43279841542244
0.0153500000610948 0.05444999679178 0.00564999974519014 16 0.0670799762010574 0.347266376018524 -0.038449689745903 0.355769634246826
0.018150000102818 0.05444999679178 0.00564999974519014 16 0.0855170041322708 0.23558235168457 -0.0486277788877487 0.255297601222992
0.0209500001445413 0.05444999679178 0.00564999974519014 16 0.0933093652129173 0.120340317487717 -0.0489720888435841 0.15995842218399
0.0237500001862645 0.05444999679178 0.00564999974519014 16 0.0932398736476898 0.012213671579957 -0.0431072935461998 0.103446058928967
0.0265500002279878 0.05444999679178 0.00564999974519014 16 0.0869352221488953 -0.0810418948531151 -0.0401578433811665 0.125451877713203
0.029350000269711 0.05444999679178 0.00564999974519014 16 0.0757304206490517 -0.159297779202461 -0.0362679325044155 0.180072873830795
0.0321500003114343 0.05444999679178 0.00564999974519014 16 0.0645759403705597 -0.215963393449783 -0.0357740931212902 0.228232398629189
0.0349500003531575 0.05444999679178 0.00564999974519014 16 0.0581661909818649 -0.240273177623749 -0.0335620567202568 0.249481290578842
-0.0350500006899238 0.0516499967500567 0.00564999974519014 16 0.0380746126174927 0.177645176649094 -0.116154819726944 0.215637251734734
-0.0322500006482005 0.0516499967500567 0.00564999974519014 16 0.0345531143248081 0.138794258236885 -0.11152508109808 0.181371465325356
-0.0294500006064773 0.0516499967500567 0.00564999974519014 16 0.0260516498237848 0.058001697063446 -0.0994146838784218 0.118009172379971
-0.026650000564754 0.0516499967500567 0.00564999974519014 16 0.0155320139601827 -0.0314918123185635 -0.082205519080162 0.0893908590078354
-0.0238500005230308 0.0516499967500567 0.00564999974519014 16 0.00293114990927279 -0.114250220358372 -0.0619193278253078 0.129983484745026
-0.0210500004813075 0.0516499967500567 0.00564999974519014 16 -0.00662833033129573 -0.192115098237991 -0.0455406010150909 0.197550222277641
-0.0182500004395843 0.0516499967500567 0.00564999974519014 16 -0.0108819035813212 -0.271441251039505 -0.0353621430695057 0.273951202630997
-0.015450000397861 0.0516499967500567 0.00564999974519014 16 -0.00407238490879536 -0.347969174385071 -0.035738218575716 0.349823325872421
-0.0126500003561378 0.0516499967500567 0.00564999974519014 16 0.0123001532629132 -0.402246087789536 -0.044727448374033 0.404912024736404
-0.0098500003144145 0.0516499967500567 0.00564999974519014 16 0.0318110845983028 -0.410267382860184 -0.0569424889981747 0.415419936180115
-0.00705000027269125 0.0516499967500567 0.00564999974519014 16 0.0439054369926453 -0.35405644774437 -0.0657248646020889 0.36277186870575
-0.004250000230968 0.0516499967500567 0.00564999974519014 16 0.0412050895392895 -0.227863654494286 -0.0605804249644279 0.239352658390999
-0.00145000018924474 0.0516499967500567 0.00564999974519014 16 0.0269820429384708 -0.0510955005884171 -0.0411408543586731 0.0709320157766342
0.0013499998524785 0.0516499967500567 0.00564999974519014 16 0.0108461668714881 0.147220060229301 -0.0141571611166 0.148296356201172
0.00414999989420176 0.0516499967500567 0.00564999974519014 16 0.000378434982849285 0.322009831666946 0.0100046098232269 0.322165429592133
0.006949999935925 0.0516499967500567 0.00564999974519014 16 -0.00321704451926053 0.440630406141281 0.0222670082002878 0.441204398870468
0.00974999997764826 0.0516499967500567 0.00564999974519014 16 -0.00580776948481798 0.481280297040939 0.0303605366498232 0.482271939516068
0.0125500000193715 0.0516499967500567 0.00564999974519014 16 -0.00959187746047974 0.447590857744217 0.0384447015821934 0.449341267347336
0.0153500000610948 0.0516499967500567 0.00564999974519014 16 -0.0165262706577778 0.359288036823273 0.055310994386673 0.363896042108536
0.018150000102818 0.0516499967500567 0.00564999974519014 16 -0.0226495806127787 0.241476505994797 0.0756709054112434 0.254066914319992
0.0209500001445413 0.0516499967500567 0.00564999974519014 16 -0.0275869183242321 0.119983479380608 0.0933550819754601 0.154506459832191
0.0237500001862645 0.0516499967500567 0.00564999974519014 16 -0.0300730485469103 0.00766742415726185 0.105180412530899 0.109663560986519
0.0265500002279878 0.0516499967500567 0.00564999974519014 16 -0.0315625034272671 -0.0881063789129257 0.106657028198242 0.141896605491638
0.029350000269711 0.0516499967500567 0.00564999974519014 16 -0.0334376133978367 -0.16628235578537 0.105797685682774 0.199902594089508
0.0321500003114343 0.0516499967500567 0.00564999974519014 16 -0.0342167168855667 -0.223060116171837 0.0996554046869278 0.246693730354309
0.0349500003531575 0.0516499967500567 0.00564999974519014 16 -0.0346924439072609 -0.24684551358223 0.0979273915290833 0.267817199230194
-0.0350500006899238 0.0488499967083335 0.00564999974519014 16 -0.0644401386380196 0.164656639099121 0.00439475057646632 0.176871865987778
-0.0322500006482005 0.0488499967083335 0.00564999974519014 16 -0.0703960955142975 0.126811891794205 0.0107168890535831 0.145436301827431
-0.0294500006064773 0.0488499967083335 0.00564999974519014 16 -0.0822001248598099 0.04854916036129 0.0218261852860451 0.0979298949241638
-0.026650000564754 0.0488499967083335 0.00564999974519014 16 -0.0925069376826286 -0.0398828089237213 0.0336312055587769 0.106203719973564
-0.0238500005230308 0.0488499967083335 0.00564999974519014 16 -0.0995194092392921 -0.120610669255257 0.0443436875939369 0.162534341216087
-0.0210500004813075 0.0488499967083335 0.00564999974519014 16 -0.0972976684570312 -0.19425356388092 0.0486020669341087 0.222628489136696
-0.0182500004395843 0.0488499967083335 0.00564999974519014 16 -0.0827735215425491 -0.264449864625931 0.042246837168932 0.280303359031677
-0.015450000397861 0.0488499967083335 0.00564999974519014 16 -0.0498446188867092 -0.328089028596878 0.0166264176368713 0.332269966602325
-0.0126500003561378 0.0488499967083335 0.00564999974519014 16 0.000488223071442917 -0.369905292987823 -0.0279026534408331 0.370956510305405
-0.0098500003144145 0.0488499967083335 0.00564999974519014 16 0.0582816787064075 -0.370502680540085 -0.0823223888874054 0.383986920118332
-0.00705000027269125 0.0488499967083335 0.00564999974519014 16 0.10809713602066 -0.31634259223938 -0.131794095039368 0.359342873096466
-0.004250000230968 0.0488499967083335 0.00564999974519014 16 0.136001691222191 -0.201838240027428 -0.159460052847862 0.29096844792366
-0.00145000018924474 0.0488499967083335 0.00564999974519014 16 0.139006048440933 -0.0433361269533634 -0.159332439303398 0.215841442346573
0.0013499998524785 0.0488499967083335 0.00564999974519014 16 0.1219547316432 0.135101959109306 -0.135039672255516 0.226630121469498
0.00414999989420176 0.0488499967083335 0.00564999974519014 16 0.0899642705917358 0.294317841529846 -0.0921862572431564 0.321270704269409
0.006949999935925 0.0488499967083335 0.00564999974519014 16 0.0488392524421215 0.404138416051865 -0.0423783846199512 0.409278720617294
0.00974999997764826 0.0488499967083335 0.00564999974519014 16 -0.000261092383880168 0.444363623857498 0.0187568180263042 0.444759398698807
0.0125500000193715 0.0488499967083335 0.00564999974519014 16 -0.0470578968524933 0.415903329849243 0.0797955617308617 0.426095485687256
0.0153500000610948 0.0488499967083335 0.00564999974519014 16 -0.0883630141615868 0.336028337478638 0.142902329564095 0.375691562891006
0.018150000102818 0.0488499967083335 0.00564999974519014 16 -0.115393422544003 0.226746186614037 0.191619902849197 0.318508476018906
0.0209500001445413 0.0488499967083335 0.00564999974519014 16 -0.130795985460281 0.112061500549316 0.224279567599297 0.282783836126328
0.0237500001862645 0.0488499967083335 0.00564999974519014 16 -0.133790254592896 0.00561341969296336 0.237391456961632 0.272554665803909
0.0265500002279878 0.0488499967083335 0.00564999974519014 16 -0.128834366798401 -0.0857186391949654 0.233322724699974 0.279974043369293
0.029350000269711 0.0488499967083335 0.00564999974519014 16 -0.119704023003578 -0.159602701663971 0.222148314118385 0.29858323931694
0.0321500003114343 0.0488499967083335 0.00564999974519014 16 -0.10974845290184 -0.213472172617912 0.206493526697159 0.316630184650421
0.0349500003531575 0.0488499967083335 0.00564999974519014 16 -0.104791656136513 -0.235869646072388 0.199419215321541 0.326165318489075
-0.0350500006899238 0.0460499966666102 0.00564999974519014 16 -0.111902333796024 0.138856127858162 0.0783030167222023 0.194767862558365
-0.0322500006482005 0.0460499966666102 0.00564999974519014 16 -0.119837857782841 0.106116943061352 0.0839181765913963 0.18073233962059
-0.0294500006064773 0.0460499966666102 0.00564999974519014 16 -0.134794548153877 0.0381463579833508 0.0928304493427277 0.168054178357124
-0.026650000564754 0.0460499966666102 0.00564999974519014 16 -0.145706996321678 -0.0405428931117058 0.0985248163342476 0.18050317466259
-0.0238500005230308 0.0460499966666102 0.00564999974519014 16 -0.148282527923584 -0.112951301038265 0.0999545603990555 0.211510315537453
-0.0210500004813075 0.0460499966666102 0.00564999974519014 16 -0.137417152523994 -0.177401766180992 0.0941545218229294 0.243351459503174
-0.0182500004395843 0.0460499966666102 0.00564999974519014 16 -0.111249558627605 -0.233841195702553 0.0769412666559219 0.270144641399384
-0.015450000397861 0.0460499966666102 0.00564999974519014 16 -0.066506989300251 -0.280267298221588 0.0384820401668549 0.290609359741211
-0.0126500003561378 0.0460499966666102 0.00564999974519014 16 -0.00419826107099652 -0.305981427431107 -0.0223929136991501 0.30682846903801
-0.0098500003144145 0.0460499966666102 0.00564999974519014 16 0.0650391578674316 -0.299140274524689 -0.093611016869545 0.320121884346008
-0.00705000027269125 0.0460499966666102 0.00564999974519014 16 0.126930177211761 -0.250775754451752 -0.15848907828331 0.322674036026001
-0.004250000230968 0.0460499966666102 0.00564999974519014 16 0.166326597332954 -0.157915323972702 -0.197537690401077 0.302692770957947
-0.00145000018924474 0.0460499966666102 0.00564999974519014 16 0.178190216422081 -0.0315464474260807 -0.206380546092987 0.27448108792305
0.0013499998524785 0.0460499966666102 0.00564999974519014 16 0.1628248244524 0.109973639249802 -0.18441991508007 0.269475102424622
0.00414999989420176 0.0460499966666102 0.00564999974519014 16 0.123331516981125 0.238043770194054 -0.135129064321518 0.300225526094437
0.006949999935925 0.0460499966666102 0.00564999974519014 16 0.066605381667614 0.32836702466011 -0.0666700527071953 0.341622710227966
0.00974999997764826 0.0460499966666102 0.00564999974519014 16 -0.00185646873433143 0.365614175796509 0.0203168410807848 0.366182953119278
0.0125500000193715 0.0460499966666102 0.00564999974519014 16 -0.0674013569951057 0.348287045955658 0.107495374977589 0.370677828788757
0.0153500000610948 0.0460499966666102 0.00564999974519014 16 -0.124315515160561 0.287876784801483 0.191374525427818 0.367357581853867
0.018150000102818 0.0460499966666102 0.00564999974519014 16 -0.16206893324852 0.199402242898941 0.25264835357666 0.360359221696854
0.0209500001445413 0.0460499966666102 0.00564999974519014 16 -0.182827696204185 0.101846985518932 0.291690170764923 0.359001308679581
0.0237500001862645 0.0460499966666102 0.00564999974519014 16 -0.184939205646515 0.00829802360385656 0.303770810365677 0.355735957622528
0.0265500002279878 0.0460499966666102 0.00564999974519014 16 -0.173430815339088 -0.0733578279614449 0.293704390525818 0.348886638879776
0.029350000269711 0.0460499966666102 0.00564999974519014 16 -0.153921380639076 -0.139402404427528 0.271254509687424 0.341619431972504
0.0321500003114343 0.0460499966666102 0.00564999974519014 16 -0.134023353457451 -0.187229916453362 0.24589142203331 0.336867779493332
0.0349500003531575 0.0460499966666102 0.00564999974519014 16 -0.124229453504086 -0.207183107733727 0.233680918812752 0.336102038621902
-0.0350500006899238 0.043249996624887 0.00564999974519014 16 -0.105781801044941 0.105963081121445 0.0928748622536659 0.176192238926888
-0.0322500006482005 0.043249996624887 0.00564999974519014 16 -0.11502843350172 0.0796255320310593 0.0994187593460083 0.171627089381218
-0.0294500006064773 0.043249996624887 0.00564999974519014 16 -0.132192000746727 0.0246397871524096 0.11021763831377 0.173867121338844
-0.026650000564754 0.043249996624887 0.00564999974519014 16 -0.143912851810455 -0.0401234291493893 0.115504361689091 0.188843995332718
-0.0238500005230308 0.043249996624887 0.00564999974519014 16 -0.144008308649063 -0.100392386317253 0.113580912351608 0.209087654948235
-0.0210500004813075 0.043249996624887 0.00564999974519014 16 -0.129940390586853 -0.153319552540779 0.102759376168251 0.225723013281822
-0.0182500004395843 0.043249996624887 0.00564999974519014 16 -0.101630091667175 -0.196077406406403 0.0805704668164253 0.235088557004929
-0.015450000397861 0.043249996624887 0.00564999974519014 16 -0.0592559352517128 -0.227090939879417 0.0408119484782219 0.238216653466225
-0.0126500003561378 0.043249996624887 0.00564999974519014 16 -0.00339568289928138 -0.238687410950661 -0.0186949670314789 0.239442497491837
-0.0098500003144145 0.043249996624887 0.00564999974519014 16 0.0563500300049782 -0.226434141397476 -0.0846838876605034 0.248231962323189
-0.00705000027269125 0.043249996624887 0.00564999974519014 16 0.109455414116383 -0.185201600193977 -0.144022941589355 0.258887499570847
-0.004250000230968 0.043249996624887 0.00564999974519014 16 0.143048033118248 -0.1151272803545 -0.177534490823746 0.255412459373474
-0.00145000018924474 0.043249996624887 0.00564999974519014 16 0.153157010674477 -0.0218875482678413 -0.184741601347923 0.240968033671379
0.0013499998524785 0.043249996624887 0.00564999974519014 16 0.139163941144943 0.0816286951303482 -0.16360904276371 0.229777634143829
0.00414999989420176 0.043249996624887 0.00564999974519014 16 0.103874534368515 0.177395075559616 -0.118860751390457 0.237459078431129
0.006949999935925 0.043249996624887 0.00564999974519014 16 0.0521320141851902 0.247589781880379 -0.0534787327051163 0.258608609437943
0.00974999997764826 0.043249996624887 0.00564999974519014 16 -0.0110873347148299 0.281793624162674 0.0309079885482788 0.283700346946716
0.0125500000193715 0.043249996624887 0.00564999974519014 16 -0.0740425288677216 0.276257663965225 0.118613749742508 0.309628516435623
0.0153500000610948 0.043249996624887 0.00564999974519014 16 -0.129812210798264 0.237085431814194 0.202013075351715 0.337446272373199
0.018150000102818 0.043249996624887 0.00564999974519014 16 -0.167994469404221 0.172074884176254 0.26290363073349 0.35630077123642
0.0209500001445413 0.043249996624887 0.00564999974519014 16 -0.187330007553101 0.0951717123389244 0.299719214439392 0.366035223007202
0.0237500001862645 0.043249996624887 0.00564999974519014 16 -0.18590235710144 0.0173682495951653 0.307745933532715 0.359956800937653
0.0265500002279878 0.043249996624887 0.00564999974519014 16 -0.168151900172234 -0.0527165941894054 0.291746705770493 0.340837568044662
0.029350000269711 0.043249996624887 0.00564999974519014 16 -0.142042607069016 -0.109942808747292 0.261161208152771 0.316967993974686
0.0321500003114343 0.043249996624887 0.00564999974519014 16 -0.11700513958931 -0.151104733347893 0.229212269186974 0.298431068658829
0.0349500003531575 0.043249996624887 0.00564999974519014 16 -0.105562955141068 -0.168252855539322 0.213806375861168 0.29183167219162
-0.0350500006899238 0.0404499965831637 0.00564999974519014 16 -0.0727197527885437 0.0725406408309937 0.0757393389940262 0.127619564533234
-0.0322500006482005 0.0404499965831637 0.00564999974519014 16 -0.0815238282084465 0.052439209073782 0.0807434767484665 0.126156702637672
-0.0294500006064773 0.0404499965831637 0.00564999974519014 16 -0.0976725220680237 0.010389406234026 0.0902782380580902 0.133409231901169
-0.026650000564754 0.0404499965831637 0.00564999974519014 16 -0.108150698244572 -0.0397954359650612 0.0936557427048683 0.148497968912125
-0.0238500005230308 0.0404499965831637 0.00564999974519014 16 -0.106171451508999 -0.0870137438178062 0.0900020077824593 0.164146676659584
-0.0210500004813075 0.0404499965831637 0.00564999974519014 16 -0.0917262509465218 -0.128497004508972 0.0778979063034058 0.176049053668976
-0.0182500004395843 0.0404499965831637 0.00564999974519014 16 -0.0664875060319901 -0.159832894802094 0.0571652837097645 0.182304725050926
-0.015450000397861 0.0404499965831637 0.00564999974519014 16 -0.0337538979947567 -0.179778635501862 0.0243890918791294 0.184538647532463
-0.0126500003561378 0.0404499965831637 0.00564999974519014 16 0.00606964156031609 -0.182646676898003 -0.0228610895574093 0.184171855449677
-0.0098500003144145 0.0404499965831637 0.00564999974519014 16 0.046287264674902 -0.168682843446732 -0.0722552612423897 0.18925441801548
-0.00705000027269125 0.0404499965831637 0.00564999974519014 16 0.0806144550442696 -0.134901911020279 -0.11455849558115 0.194475874304771
-0.004250000230968 0.0404499965831637 0.00564999974519014 16 0.100569777190685 -0.0831765905022621 -0.133647263050079 0.186799943447113
-0.00145000018924474 0.0404499965831637 0.00564999974519014 16 0.103213809430599 -0.015790231525898 -0.13152240216732 0.167930230498314
0.0013499998524785 0.0404499965831637 0.00564999974519014 16 0.0885575711727142 0.0580570138990879 -0.106829456984997 0.150418058037758
0.00414999989420176 0.0404499965831637 0.00564999974519014 16 0.0595680177211761 0.127625659108162 -0.0657629743218422 0.155439451336861
0.006949999935925 0.0404499965831637 0.00564999974519014 16 0.0199132934212685 0.180866807699203 -0.0106509476900101 0.182271182537079
0.00974999997764826 0.0404499965831637 0.00564999974519014 16 -0.026852685958147 0.211974993348122 0.0556733086705208 0.220803037285805
0.0125500000193715 0.0404499965831637 0.00564999974519014 16 -0.0749894827604294 0.216089680790901 0.123729228973389 0.260052114725113
0.0153500000610948 0.0404499965831637 0.00564999974519014 16 -0.119016587734222 0.19548662006855 0.187767669558525 0.296034902334213
0.018150000102818 0.0404499965831637 0.00564999974519014 16 -0.150893181562424 0.15140326321125 0.23535917699337 0.317939668893814
0.0209500001445413 0.0404499965831637 0.00564999974519014 16 -0.165778189897537 0.0934194102883339 0.263491272926331 0.325018852949142
0.0237500001862645 0.0404499965831637 0.00564999974519014 16 -0.161389663815498 0.0301023032516241 0.267414957284927 0.313789010047913
0.0265500002279878 0.0404499965831637 0.00564999974519014 16 -0.14031571149826 -0.0293038729578257 0.249391779303551 0.287651658058167
0.029350000269711 0.0404499965831637 0.00564999974519014 16 -0.111708827316761 -0.078077144920826 0.217171594500542 0.256395012140274
0.0321500003114343 0.0404499965831637 0.00564999974519014 16 -0.0849169790744781 -0.112866006791592 0.184674665331841 0.232495933771133
0.0349500003531575 0.0404499965831637 0.00564999974519014 16 -0.0730644688010216 -0.127024859189987 0.169055715203285 0.223726540803909
-0.0350500006899238 0.0376499965414405 0.00564999974519014 16 -0.0410270132124424 0.0438499674201012 0.0515749417245388 0.0791581347584724
-0.0322500006482005 0.0376499965414405 0.00564999974519014 16 -0.0484061911702156 0.0280536897480488 0.054377593100071 0.0780198127031326
-0.0294500006064773 0.0376499965414405 0.00564999974519014 16 -0.06163489818573 -0.00438250694423914 0.0610989481210709 0.0868973433971405
-0.026650000564754 0.0376499965414405 0.00564999974519014 16 -0.0694529488682747 -0.0427251979708672 0.0626577064394951 0.102835513651371
-0.0238500005230308 0.0376499965414405 0.00564999974519014 16 -0.0661207139492035 -0.0783384665846825 0.0599387958645821 0.118749834597111
-0.0210500004813075 0.0376499965414405 0.00564999974519014 16 -0.0528778396546841 -0.109865851700306 0.0496686398983002 0.131656914949417
-0.0182500004395843 0.0376499965414405 0.00564999974519014 16 -0.0324110202491283 -0.13279777765274 0.0334337651729584 0.140725061297417
-0.015450000397861 0.0376499965414405 0.00564999974519014 16 -0.00888234376907349 -0.145957410335541 0.0091938367113471 0.146516174077988
-0.0126500003561378 0.0376499965414405 0.00564999974519014 16 0.0168355833739042 -0.144382879137993 -0.023319061845541 0.14721967279911
-0.0098500003144145 0.0376499965414405 0.00564999974519014 16 0.0404811203479767 -0.13039043545723 -0.055341362953186 0.147319555282593
-0.00705000027269125 0.0376499965414405 0.00564999974519014 16 0.0578318759799004 -0.102418147027493 -0.0805734768509865 0.142569586634636
-0.004250000230968 0.0376499965414405 0.00564999974519014 16 0.064586266875267 -0.0629807785153389 -0.0869663208723068 0.125304043292999