TITLE="DynamicStudio Exported Data"
VARIABLES= "X (m)[m]" "Y (m)[m]" "Z (m)[m]" "Status[-]" "U[-]" "V[-]" "W[-]" "Length[-]"
ZONE T="DynamicStudio Data" F=POINT
-0.0350500006899238 0.0600499968752265 0.00564999974519014 16 0.3426573574543 0.0394324623048306 -0.49823459982872 0.605975806713104
-0.0322500006482005 0.0600499968752265 0.00564999974519014 16 0.326028645038605 0.0132079105824232 -0.475396990776062 0.576603353023529
-0.0294500006064773 0.0600499968752265 0.00564999974519014 16 0.295970886945724 -0.0436972938477993 -0.434710532426834 0.527713477611542
-0.026650000564754 0.0600499968752265 0.00564999974519014 16 0.254069358110428 -0.106306478381157 -0.383063554763794 0.471794456243515
-0.0238500005230308 0.0600499968752265 0.00564999974519014 16 0.216903731226921 -0.165159896016121 -0.345364809036255 0.440002143383026
-0.0210500004813075 0.0600499968752265 0.00564999974519014 16 0.169573932886124 -0.215214088559151 -0.300645679235458 0.406768053770065
-0.0182500004395843 0.0600499968752265 0.00564999974519014 16 0.111165717244148 -0.261319398880005 -0.24530366063118 0.375259280204773
-0.015450000397861 0.0600499968752265 0.00564999974519014 16 0.0309309456497431 -0.292486548423767 -0.153230354189873 0.331639319658279
-0.0126500003561378 0.0600499968752265 0.00564999974519014 16 -0.0636659264564514 -0.293756932020187 -0.0326654128730297 0.302346676588058
-0.0098500003144145 0.0600499968752265 0.00564999974519014 16 -0.160164594650269 -0.246640756726265 0.105167120695114 0.312321126461029
-0.00705000027269125 0.0600499968752265 0.00564999974519014 16 -0.242341831326485 -0.146096393465996 0.229415029287338 0.364286929368973
-0.004250000230968 0.0600499968752265 0.00564999974519014 16 -0.290573924779892 -0.00603843573480844 0.313954621553421 0.427828431129456
-0.00145000018924474 0.0600499968752265 0.00564999974519014 16 -0.293729990720749 0.147397428750992 0.342978775501251 0.47501340508461
0.0013499998524785 0.0600499968752265 0.00564999974519014 16 -0.243171110749245 0.278929799795151 0.308081179857254 0.481505990028381
0.00414999989420176 0.0600499968752265 0.00564999974519014 16 -0.14624696969986 0.359402477741241 0.21657632291317 0.444368779659271
0.006949999935925 0.0600499968752265 0.00564999974519014 16 -0.0232559945434332 0.375479578971863 0.0853706151247025 0.38576403260231
0.00974999997764826 0.0600499968752265 0.00564999974519014 16 0.0961809754371643 0.330934524536133 -0.0529027059674263 0.348664790391922
0.0125500000193715 0.0600499968752265 0.00564999974519014 16 0.185835257172585 0.248835161328316 -0.163415282964706 0.350939095020294
0.0153500000610948 0.0600499968752265 0.00564999974519014 16 0.23471499979496 0.151425525546074 -0.226833790540695 0.359825491905212
0.018150000102818 0.0600499968752265 0.00564999974519014 16 0.247881338000298 0.0556850470602512 -0.244375482201576 0.352512925863266
0.0209500001445413 0.0600499968752265 0.00564999974519014 16 0.236350581049919 -0.0298798866569996 -0.234805151820183 0.334496408700943
0.0237500001862645 0.0600499968752265 0.00564999974519014 16 0.209866374731064 -0.107333742082119 -0.212488442659378 0.31735748052597
0.0265500002279878 0.0600499968752265 0.00564999974519014 16 0.171140372753143 -0.17393559217453 -0.184119835495949 0.305684059858322
0.029350000269711 0.0600499968752265 0.00564999974519014 16 0.126580208539963 -0.232417568564415 -0.149998649954796 0.304203987121582
0.0321500003114343 0.0600499968752265 0.00564999974519014 16 0.0869499444961548 -0.273683696985245 -0.119371876120567 0.310986667871475
0.0349500003531575 0.0600499968752265 0.00564999974519014 16 0.0680715516209602 -0.293017327785492 -0.101652331650257 0.317531257867813
-0.0350500006899238 0.0572499968335032 0.00564999974519014 16 0.293618232011795 0.0375039093196392 -0.446438699960709 0.535654485225677
-0.0322500006482005 0.0572499968335032 0.00564999974519014 16 0.277909189462662 0.00968571379780769 -0.426539540290833 0.509179055690765
-0.0294500006064773 0.0572499968335032 0.00564999974519014 16 0.249889254570007 -0.0493429005146027 -0.391401767730713 0.466984689235687
-0.026650000564754 0.0572499968335032 0.00564999974519014 16 0.213624000549316 -0.11405935138464 -0.347273677587509 0.423371881246567
-0.0238500005230308 0.0572499968335032 0.00564999974519014 16 0.183223322033882 -0.174623519182205 -0.316090255975723 0.404940992593765
-0.0210500004813075 0.0572499968335032 0.00564999974519014 16 0.14614063501358 -0.227545619010925 -0.280855983495712 0.38988995552063
-0.0182500004395843 0.0572499968335032 0.00564999974519014 16 0.100533097982407 -0.277453601360321 -0.237974807620049 0.379103451967239
-0.015450000397861 0.0572499968335032 0.00564999974519014 16 0.0362065993249416 -0.31299164891243 -0.163792133331299 0.355109214782715
-0.0126500003561378 0.0572499968335032 0.00564999974519014 16 -0.0407020002603531 -0.317296057939529 -0.0621678754687309 0.325880795717239
-0.0098500003144145 0.0572499968335032 0.00564999974519014 16 -0.121768459677696 -0.268942534923553 0.0591162592172623 0.301085323095322
-0.00705000027269125 0.0572499968335032 0.00564999974519014 16 -0.194151222705841 -0.162533760070801 0.175423264503479 0.308034479618073
-0.004250000230968 0.0572499968335032 0.00564999974519014 16 -0.240806043148041 -0.0102773401886225 0.260338753461838 0.354780852794647
-0.00145000018924474 0.0572499968335032 0.00564999974519014 16 -0.250496983528137 0.156308472156525 0.297504186630249 0.419153690338135
0.0013499998524785 0.0572499968335032 0.00564999974519014 16 -0.211735486984253 0.300620496273041 0.274436861276627 0.458824783563614
0.00414999989420176 0.0572499968335032 0.00564999974519014 16 -0.131722971796989 0.387970864772797 0.198820352554321 0.455413967370987
0.006949999935925 0.0572499968335032 0.00564999974519014 16 -0.0258293021470308 0.405417740345001 0.0832536965608597 0.414682865142822
0.00974999997764826 0.0572499968335032 0.00564999974519014 16 0.075838714838028 0.356620728969574 -0.0388746559619904 0.366662085056305
0.0125500000193715 0.0572499968335032 0.00564999974519014 16 0.152604162693024 0.267200201749802 -0.136819899082184 0.336754590272903
0.0153500000610948 0.0572499968335032 0.00564999974519014 16 0.19243848323822 0.161325499415398 -0.190041318535805 0.314919322729111
0.018150000102818 0.0572499968335032 0.00564999974519014 16 0.202828913927078 0.0585820190608501 -0.201963320374489 0.292165368795395
0.0209500001445413 0.0572499968335032 0.00564999974519014 16 0.192292436957359 -0.032833456993103 -0.190812975168228 0.27288094162941
0.0237500001862645 0.0572499968335032 0.00564999974519014 16 0.170165687799454 -0.113542512059212 -0.170073434710503 0.26603239774704
0.0265500002279878 0.0572499968335032 0.00564999974519014 16 0.137748003005981 -0.183518424630165 -0.146017238497734 0.271982640028
0.029350000269711 0.0572499968335032 0.00564999974519014 16 0.101100005209446 -0.244072064757347 -0.117248564958572 0.289032191038132
0.0321500003114343 0.0572499968335032 0.00564999974519014 16 0.06844312697649 -0.287625461816788 -0.0921871513128281 0.309695571660995
0.0349500003531575 0.0572499968335032 0.00564999974519014 16 0.0532740391790867 -0.307207107543945 -0.0788064822554588 0.321597248315811
-0.0350500006899238 0.05444999679178 0.00564999974519014 16 0.172356739640236 0.0340771563351154 -0.314303278923035 0.360075891017914
-0.0322500006482005 0.05444999679178 0.00564999974519014 16 0.160542502999306 0.00402764463797212 -0.300893932580948 0.341067850589752
-0.0294500006064773 0.05444999679178 0.00564999974519014 16 0.140285983681679 -0.0587906837463379 -0.279121190309525 0.317875981330872
-0.026650000564754 0.05444999679178 0.00564999974519014 16 0.117290407419205 -0.127674043178558 -0.252586156129837 0.306361675262451
-0.0238500005230308 0.05444999679178 0.00564999974519014 16 0.102911002933979 -0.192392706871033 -0.239295244216919 0.323833048343658
-0.0210500004813075 0.05444999679178 0.00564999974519014 16 0.0873418301343918 -0.251059085130692 -0.22554287314415 0.348609894514084
-0.0182500004395843 0.05444999679178 0.00564999974519014 16 0.0699639692902565 -0.30704864859581 -0.21029557287693 0.378679364919662
-0.015450000397861 0.05444999679178 0.00564999974519014 16 0.0420137755572796 -0.347595661878586 -0.17406091094017 0.391005247831345
-0.0126500003561378 0.05444999679178 0.00564999974519014 16 0.00650299619883299 -0.353839337825775 -0.115774117410183 0.372354954481125
-0.0098500003144145 0.05444999679178 0.00564999974519014 16 -0.0371404364705086 -0.301500558853149 -0.0339980944991112 0.305676102638245
-0.00705000027269125 0.05444999679178 0.00564999974519014 16 -0.0844088345766068 -0.186059847474098 0.0573757775127888 0.212214738130569
-0.004250000230968 0.05444999679178 0.00564999974519014 16 -0.124080263078213 -0.0164885185658932 0.135939866304398 0.18479023873806
-0.00145000018924474 0.05444999679178 0.00564999974519014 16 -0.146075218915939 0.168490692973137 0.185686960816383 0.290183961391449
0.0013499998524785 0.05444999679178 0.00564999974519014 16 -0.134183332324028 0.331085860729218 0.188438162207603 0.403895974159241
0.00414999989420176 0.05444999679178 0.00564999974519014 16 -0.0938453674316406 0.429274469614029 0.15047524869442 0.464463472366333
0.006949999935925 0.05444999679178 0.00564999974519014 16 -0.0305276084691286 0.45032986998558 0.0761359259486198 0.457739681005478
0.00974999997764826 0.05444999679178 0.00564999974519014 16 0.0288990400731564 0.397230833768845 -0.00376732414588332 0.398298472166061
0.0125500000193715 0.05444999679178 0.00564999974519014 16 0.0749417692422867 0.297355622053146 -0.0677456706762314 0.314047962427139
0.0153500000610948 0.05444999679178 0.00564999974519014 16 0.0954500809311867 0.178314968943596 -0.0957104340195656 0.223757535219193
0.018150000102818 0.05444999679178 0.00564999974519014 16 0.10028014332056 0.0632342174649239 -0.0950702652335167 0.151963904500008
0.0209500001445413 0.05444999679178 0.00564999974519014 16 0.0928210392594337 -0.0388025008141994 -0.0818929523229599 0.129722148180008
0.0237500001862645 0.05444999679178 0.00564999974519014 16 0.080808125436306 -0.126724362373352 -0.0676621645689011 0.164824709296227
0.0265500002279878 0.05444999679178 0.00564999974519014 16 0.0630504563450813 -0.203368932008743 -0.0555940382182598 0.220056772232056
0.029350000269711 0.05444999679178 0.00564999974519014 16 0.0442228987812996 -0.267187297344208 -0.0404944978654385 0.273833006620407
0.0321500003114343 0.05444999679178 0.00564999974519014 16 0.0270994026213884 -0.313342124223709 -0.0268513839691877 0.315655916929245
0.0349500003531575 0.05444999679178 0.00564999974519014 16 0.019770311191678 -0.332840859889984 -0.0184064321219921 0.333935171365738
-0.0350500006899238 0.0516499967500567 0.00564999974519014 16 0.0218385383486748 0.028110621497035 -0.132865428924561 0.1375512778759
-0.0322500006482005 0.0516499967500567 0.00564999974519014 16 0.014039346948266 -0.00264214444905519 -0.127171203494072 0.127971082925797
-0.0294500006064773 0.0516499967500567 0.00564999974519014 16 0.00404820078983903 -0.0672549679875374 -0.12270200252533 0.13998356461525
-0.026650000564754 0.0516499967500567 0.00564999974519014 16 -0.00231968681327999 -0.138802781701088 -0.11919404566288 0.18297216296196
-0.0238500005230308 0.0516499967500567 0.00564999974519014 16 0.00291846180334687 -0.205843836069107 -0.128519788384438 0.242688149213791
-0.0210500004813075 0.0516499967500567 0.00564999974519014 16 0.0133675597608089 -0.266184031963348 -0.141875460743904 0.301929265260696
-0.0182500004395843 0.0516499967500567 0.00564999974519014 16 0.0291720293462276 -0.321237951517105 -0.160493806004524 0.360281974077225
-0.015450000397861 0.0516499967500567 0.00564999974519014 16 0.043577253818512 -0.35908243060112 -0.170608833432198 0.399933189153671
-0.0126500003561378 0.0516499967500567 0.00564999974519014 16 0.0561221987009048 -0.362239241600037 -0.166111767292023 0.402442663908005
-0.0098500003144145 0.0516499967500567 0.00564999974519014 16 0.0581265352666378 -0.306972116231918 -0.13564920425415 0.340604305267334
-0.00705000027269125 0.0516499967500567 0.00564999974519014 16 0.0455303266644478 -0.189955309033394 -0.0820491462945938 0.211868107318878
-0.004250000230968 0.0516499967500567 0.00564999974519014 16 0.0207351930439472 -0.016421727836132 -0.0186723917722702 0.0323771461844444
-0.00145000018924474 0.0516499967500567 0.00564999974519014 16 -0.00985368154942989 0.172803893685341 0.0396160557866096 0.177560448646545
0.0013499998524785 0.0516499967500567 0.00564999974519014 16 -0.029865700751543 0.341376572847366 0.0746358036994934 0.350714176893234
0.00414999989420176 0.0516499967500567 0.00564999974519014 16 -0.0396328046917915 0.444403082132339 0.0870757028460503 0.45458447933197
0.006949999935925 0.0516499967500567 0.00564999974519014 16 -0.0331407599151134 0.467816799879074 0.0713528171181679 0.474386006593704
0.00974999997764826 0.0516499967500567 0.00564999974519014 16 -0.0273260660469532 0.414907783269882 0.0483975857496262 0.418613791465759
0.0125500000193715 0.0516499967500567 0.00564999974519014 16 -0.0211643762886524 0.311178714036942 0.0288340747356415 0.313227593898773
0.0153500000610948 0.0516499967500567 0.00564999974519014 16 -0.0244542807340622 0.186645030975342 0.0313351787626743 0.190830484032631
0.018150000102818 0.0516499967500567 0.00564999974519014 16 -0.027178306132555 0.0645598024129868 0.0451674200594425 0.0833470076322556
0.0209500001445413 0.0516499967500567 0.00564999974519014 16 -0.0302984341979027 -0.0437036789953709 0.0587030202150345 0.0792089104652405
0.0237500001862645 0.0516499967500567 0.00564999974519014 16 -0.0294213909655809 -0.135333493351936 0.0622081905603409 0.151824340224266
0.0265500002279878 0.0516499967500567 0.00564999974519014 16 -0.0278413351625204 -0.214488118886948 0.0572304390370846 0.223731130361557
0.029350000269711 0.0516499967500567 0.00564999974519014 16 -0.0238881316035986 -0.278040111064911 0.0516908280551434 0.28381136059761
0.0321500003114343 0.0516499967500567 0.00564999974519014 16 -0.0200741421431303 -0.324381738901138 0.0455774627625942 0.328182548284531
0.0349500003531575 0.0516499967500567 0.00564999974519014 16 -0.0170523896813393 -0.342781454324722 0.0433475375175476 0.345931947231293
-0.0350500006899238 0.0488499967083335 0.00564999974519014 16 -0.108894467353821 0.0235852114856243 0.0399094559252262 0.118351310491562
-0.0322500006482005 0.0488499967083335 0.00564999974519014 16 -0.112442314624786 -0.00655497796833515 0.0400693975389004 0.119548305869102
-0.0294500006064773 0.0488499967083335 0.00564999974519014 16 -0.113141477108002 -0.0698060467839241 0.0312573686242104 0.136568292975426
-0.026650000564754 0.0488499967083335 0.00564999974519014 16 -0.105474278330803 -0.140339255332947 0.0147464638575912 0.176174312829971
-0.0238500005230308 0.0488499967083335 0.00564999974519014 16 -0.0848998203873634 -0.205847278237343 -0.0149414818733931 0.223168835043907
-0.0210500004813075 0.0488499967083335 0.00564999974519014 16 -0.0544526167213917 -0.262299120426178 -0.0526559799909592 0.273017525672913
-0.0182500004395843 0.0488499967083335 0.00564999974519014 16 -0.0132936667650938 -0.309181600809097 -0.0987944751977921 0.32485431432724
-0.015450000397861 0.0488499967083335 0.00564999974519014 16 0.0340800285339355 -0.336190670728683 -0.145564362406731 0.367932885885239
-0.0126500003561378 0.0488499967083335 0.00564999974519014 16 0.0844830498099327 -0.330296516418457 -0.183998197317123 0.38741260766983
-0.0098500003144145 0.0488499967083335 0.00564999974519014 16 0.12374073266983 -0.273842304944992 -0.197403639554977 0.359540790319443
-0.00705000027269125 0.0488499967083335 0.00564999974519014 16 0.142374575138092 -0.16602398455143 -0.181576684117317 0.284261435270309
-0.004250000230968 0.0488499967083335 0.00564999974519014 16 0.133846580982208 -0.01048728171736 -0.138461247086525 0.192863702774048
-0.00145000018924474 0.0488499967083335 0.00564999974519014 16 0.101294234395027 0.158597603440285 -0.0807678028941154 0.204785645008087
0.0013499998524785 0.0488499967083335 0.00564999974519014 16 0.0569885484874249 0.310743182897568 -0.0207983143627644 0.316609531641006
0.00414999989420176 0.0488499967083335 0.00564999974519014 16 0.00751418806612492 0.406988054513931 0.0339375510811806 0.408469706773758
0.006949999935925 0.0488499967083335 0.00564999974519014 16 -0.0344597846269608 0.432584822177887 0.0718961507081985 0.439870595932007
0.00974999997764826 0.0488499967083335 0.00564999974519014 16 -0.0731339454650879 0.389213413000107 0.101753883063793 0.408888131380081
0.0125500000193715 0.0488499967083335 0.00564999974519014 16 -0.101191461086273 0.295861214399338 0.124781183898449 0.336665868759155
0.0153500000610948 0.0488499967083335 0.00564999974519014 16 -0.123365886509418 0.180412143468857 0.155105590820312 0.268002659082413
0.018150000102818 0.0488499967083335 0.00564999974519014 16 -0.131613194942474 0.0631673410534859 0.179026409983635 0.231003478169441
0.0209500001445413 0.0488499967083335 0.00564999974519014 16 -0.129332914948463 -0.0427676402032375 0.18980897963047 0.233631163835526
0.0237500001862645 0.0488499967083335 0.00564999974519014 16 -0.115972205996513 -0.133354634046555 0.179288849234581 0.251748889684677
0.0265500002279878 0.0488499967083335 0.00564999974519014 16 -0.0959635674953461 -0.210111558437347 0.153293311595917 0.277226835489273
0.029350000269711 0.0488499967083335 0.00564999974519014 16 -0.0722260847687721 -0.269304066896439 0.124682173132896 0.305429100990295
0.0321500003114343 0.0488499967083335 0.00564999974519014 16 -0.0507360137999058 -0.310957968235016 0.0994707867503166 0.330398917198181
0.0349500003531575 0.0488499967083335 0.00564999974519014 16 -0.0400602482259274 -0.32698392868042 0.0892533659934998 0.341305553913116
-0.0350500006899238 0.0460499966666102 0.00564999974519014 16 -0.170897990465164 0.015933919698 0.149175077676773 0.227405399084091
-0.0322500006482005 0.0460499966666102 0.00564999974519014 16 -0.172102823853493 -0.0108692310750484 0.144922703504562 0.2252556681633
-0.0294500006064773 0.0460499966666102 0.00564999974519014 16 -0.168643325567245 -0.0680679529905319 0.128064021468163 0.222427994012833
-0.026650000564754 0.0460499966666102 0.00564999974519014 16 -0.154808476567268 -0.132523402571678 0.0998528823256493 0.226933285593987
-0.0238500005230308 0.0460499966666102 0.00564999974519014 16 -0.127949744462967 -0.191330596804619 0.0593154095113277 0.237690657377243
-0.0210500004813075 0.0460499966666102 0.00564999974519014 16 -0.0892742052674294 -0.23795759677887 0.00897006504237652 0.254311144351959
-0.0182500004395843 0.0460499966666102 0.00564999974519014 16 -0.0380765236914158 -0.271028310060501 -0.0505200549960136 0.27831357717514
-0.015450000397861 0.0460499966666102 0.00564999974519014 16 0.0217037834227085 -0.283738881349564 -0.114781424403191 0.306844562292099
-0.0126500003561378 0.0460499966666102 0.00564999974519014 16 0.0863380879163742 -0.26872706413269 -0.173865437507629 0.331508219242096
-0.0098500003144145 0.0460499966666102 0.00564999974519014 16 0.140195906162262 -0.215825572609901 -0.209072723984718 0.331582546234131
-0.00705000027269125 0.0460499966666102 0.00564999974519014 16 0.173890620470047 -0.125818222761154 -0.214272394776344 0.303283423185349
-0.004250000230968 0.0460499966666102 0.00564999974519014 16 0.175405859947205 -0.00224940408952534 -0.18403322994709 0.254244983196259
-0.00145000018924474 0.0460499966666102 0.00564999974519014 16 0.146380200982094 0.131521821022034 -0.130160853266716 0.235938549041748
0.0013499998524785 0.0460499966666102 0.00564999974519014 16 0.0925730764865875 0.253511637449265 -0.0581613443791866 0.276080906391144
0.00414999989420176 0.0460499966666102 0.00564999974519014 16 0.0260927248746157 0.334353774785995 0.0185199901461601 0.335881322622299
0.006949999935925 0.0460499966666102 0.00564999974519014 16 -0.0393622256815434 0.360651344060898 0.087126262485981 0.373108237981796
0.00974999997764826 0.0460499966666102 0.00564999974519014 16 -0.0986063778400421 0.331318795681 0.146514296531677 0.375448793172836
0.0125500000193715 0.0460499966666102 0.00564999974519014 16 -0.143643364310265 0.2591632604599 0.192842021584511 0.353535085916519
0.0153500000610948 0.0460499966666102 0.00564999974519014 16 -0.174415335059166 0.164703086018562 0.235343277454376 0.33605694770813
0.018150000102818 0.0460499966666102 0.00564999974519014 16 -0.184279322624207 0.0631967857480049 0.260278284549713 0.325111478567123
0.0209500001445413 0.0460499966666102 0.00564999974519014 16 -0.176600456237793 -0.0322042517364025 0.264232724905014 0.319442898035049
0.0237500001862645 0.0460499966666102 0.00564999974519014 16 -0.153982594609261 -0.1159343495965 0.242101535201073 0.309458523988724
0.0265500002279878 0.0460499966666102 0.00564999974519014 16 -0.121655762195587 -0.184989809989929 0.201025351881981 0.299052745103836
0.029350000269711 0.0460499966666102 0.00564999974519014 16 -0.085551917552948 -0.236882016062737 0.156059116125107 0.296288162469864
0.0321500003114343 0.0460499966666102 0.00564999974519014 16 -0.0528449155390263 -0.271700710058212 0.115796372294426 0.300037771463394
0.0349500003531575 0.0460499966666102 0.00564999974519014 16 -0.0375135540962219 -0.285174787044525 0.0987087264657021 0.304097592830658
-0.0350500006899238 0.043249996624887 0.00564999974519014 16 -0.164542376995087 0.00836271326988935 0.180072635412216 0.244070246815681
-0.0322500006482005 0.043249996624887 0.00564999974519014 16 -0.165504932403564 -0.0147389378398657 0.174828082323074 0.241192817687988
-0.0294500006064773 0.043249996624887 0.00564999974519014 16 -0.163147181272507 -0.0635436922311783 0.157932549715042 0.235791206359863
-0.026650000564754 0.043249996624887 0.00564999974519014 16 -0.151361733675003 -0.118360929191113 0.128662258386612 0.231243714690208
-0.0238500005230308 0.043249996624887 0.00564999974519014 16 -0.127277091145515 -0.166646435856819 0.0875463560223579 0.227233052253723
-0.0210500004813075 0.043249996624887 0.00564999974519014 16 -0.091978132724762 -0.201988026499748 0.0363995209336281 0.224909022450447
-0.0182500004395843 0.043249996624887 0.00564999974519014 16 -0.044788796454668 -0.22281177341938 -0.0233786441385746 0.228468120098114
-0.015450000397861 0.043249996624887 0.00564999974519014 16 0.00949898455291986 -0.22515968978405 -0.086422935128212 0.241362884640694
-0.0126500003561378 0.043249996624887 0.00564999974519014 16 0.0683689713478088 -0.205218434333801 -0.144780546426773 0.260288923978806
-0.0098500003144145 0.043249996624887 0.00564999974519014 16 0.116770766675472 -0.158727020025253 -0.179908111691475 0.266826897859573
-0.00705000027269125 0.043249996624887 0.00564999974519014 16 0.147969201207161 -0.0881211087107658 -0.187760293483734 0.254782557487488
-0.004250000230968 0.043249996624887 0.00564999974519014 16 0.148941054940224 0.00281346892006695 -0.159944042563438 0.218571379780769
-0.00145000018924474 0.043249996624887 0.00564999974519014 16 0.122840061783791 0.0996456295251846 -0.109017498791218 0.19210347533226
0.0013499998524785 0.043249996624887 0.00564999974519014 16 0.0726296976208687 0.189611837267876 -0.0385925881564617 0.206681191921234
0.00414999989420176 0.043249996624887 0.00564999974519014 16 0.0119055509567261 0.253131419420242 0.0367456115782261 0.256061494350433
0.006949999935925 0.043249996624887 0.00564999974519014 16 -0.0497656501829624 0.280258387327194 0.108001656830311 0.304443329572678
0.00974999997764826 0.043249996624887 0.00564999974519014 16 -0.105784229934216 0.266407251358032 0.171733289957047 0.334148824214935
0.0125500000193715 0.043249996624887 0.00564999974519014 16 -0.150216683745384 0.218545451760292 0.223124176263809 0.346571147441864
0.0153500000610948 0.043249996624887 0.00564999974519014 16 -0.179411292076111 0.148967400193214 0.265187054872513 0.353134363889694
0.018150000102818 0.043249996624887 0.00564999974519014 16 -0.186732321977615 0.0678771883249283 0.285980105400085 0.348225355148315
0.0209500001445413 0.043249996624887 0.00564999974519014 16 -0.174240484833717 -0.0134330997243524 0.282311916351318 0.332024395465851
0.0237500001862645 0.043249996624887 0.00564999974519014 16 -0.145884692668915 -0.0886255651712418 0.251578330993652 0.304020553827286
0.0265500002279878 0.043249996624887 0.00564999974519014 16 -0.108007378876209 -0.150422498583794 0.200501546263695 0.272934764623642
0.029350000269711 0.043249996624887 0.00564999974519014 16 -0.0679635778069496 -0.195737555623055 0.14678829908371 0.253927230834961
0.0321500003114343 0.043249996624887 0.00564999974519014 16 -0.0334120243787766 -0.224122196435928 0.100953459739685 0.248070001602173
0.0349500003531575 0.043249996624887 0.00564999974519014 16 -0.0178601499646902 -0.235010325908661 0.0821110308170319 0.249581769108772
-0.0350500006899238 0.0404499965831637 0.00564999974519014 16 -0.120680548250675 -0.0034307218156755 0.162363365292549 0.202329993247986
-0.0322500006482005 0.0404499965831637 0.00564999974519014 16 -0.122306726872921 -0.021883787587285 0.156381487846375 0.199732333421707
-0.0294500006064773 0.0404499965831637 0.00564999974519014 16 -0.122660003602505 -0.0605459026992321 0.141083002090454 0.196508765220642
-0.026650000564754 0.0404499965831637 0.00564999974519014 16 -0.115718923509121 -0.104224018752575 0.114056944847107 0.193034961819649
-0.0238500005230308 0.0404499965831637 0.00564999974519014 16 -0.0976195633411407 -0.141236737370491 0.0770999640226364 0.188206806778908
-0.0210500004813075 0.0404499965831637 0.00564999974519014 16 -0.0705584585666656 -0.166402533650398 0.0321317315101624 0.183577641844749
-0.0182500004395843 0.0404499965831637 0.00564999974519014 16 -0.0338480807840824 -0.178111627697945 -0.0188028439879417 0.182271748781204
-0.015450000397861 0.0404499965831637 0.00564999974519014 16 0.00666202651336789 -0.174447908997536 -0.0692077800631523 0.187792897224426
-0.0126500003561378 0.0404499965831637 0.00564999974519014 16 0.0502352118492126 -0.15374544262886 -0.114765860140324 0.198324084281921
-0.0098500003144145 0.0404499965831637 0.00564999974519014 16 0.0834279730916023 -0.114346615970135 -0.138139143586159 0.197782203555107
-0.00705000027269125 0.0404499965831637 0.00564999974519014 16 0.102331504225731 -0.0601026155054569 -0.138194158673286 0.182158425450325
-0.004250000230968 0.0404499965831637 0.00564999974519014 16 0.0964173525571823 0.00612023985013366 -0.107222802937031 0.144327729940414
-0.00145000018924474 0.0404499965831637 0.00564999974519014 16 0.0709095522761345 0.0750788450241089 -0.0584953650832176 0.118687428534031
0.0013499998524785 0.0404499965831637 0.00564999974519014 16 0.028872037306428 0.140923336148262 0.00414783414453268 0.143910348415375
0.00414999989420176 0.0404499965831637 0.00564999974519014 16 -0.0178160406649113 0.190471917390823 0.068219356238842 0.203103020787239
0.006949999935925 0.0404499965831637 0.00564999974519014 16 -0.0640450939536095 0.216804400086403 0.129279583692551 0.260421067476273
0.00974999997764826 0.0404499965831637 0.00564999974519014 16 -0.105549156665802 0.214562118053436 0.183923602104187 0.301671028137207
0.0125500000193715 0.0404499965831637 0.00564999974519014 16 -0.139786660671234 0.186739847064018 0.228764578700066 0.326719015836716
0.0153500000610948 0.0404499965831637 0.00564999974519014 16 -0.161467581987381 0.139516115188599 0.26031956076622 0.336604803800583
0.018150000102818 0.0404499965831637 0.00564999974519014 16 -0.164430916309357 0.0777139216661453 0.270884066820145 0.326274663209915
0.0209500001445413 0.0404499965831637 0.00564999974519014 16 -0.149101585149765 0.0100665939971805 0.257565855979919 0.297779768705368
0.0237500001862645 0.0404499965831637 0.00564999974519014 16 -0.119502536952496 -0.0565856508910656 0.222649946808815 0.258951336145401
0.0265500002279878 0.0404499965831637 0.00564999974519014 16 -0.082307331264019 -0.112664543092251 0.171339765191078 0.220964044332504
0.029350000269711 0.0404499965831637 0.00564999974519014 16 -0.0433914139866829 -0.153754845261574 0.118841595947742 0.199114769697189
0.0321500003114343 0.0404499965831637 0.00564999974519014 16 -0.0108404560014606 -0.178766414523125 0.0745130181312561 0.193977162241936
0.0349500003531575 0.0404499965831637 0.00564999974519014 16 0.00410975608974695 -0.188266083598137 0.0562060922384262 0.196520060300827
-0.0350500006899238 0.0376499965414405 0.00564999974519014 16 -0.0727397054433823 -0.0162996035069227 0.128983229398727 0.148974537849426
-0.0322500006482005 0.0376499965414405 0.00564999974519014 16 -0.0750760212540627 -0.0304972473531961 0.123663164675236 0.147848129272461
-0.0294500006064773 0.0376499965414405 0.00564999974519014 16 -0.0776822417974472 -0.0591820776462555 0.111741080880165 0.148401886224747
-0.026650000564754 0.0376499965414405 0.00564999974519014 16 -0.0748231112957001 -0.0917537212371826 0.0888118669390678 0.148002669215202
-0.0238500005230308 0.0376499965414405 0.00564999974519014 16 -0.0624239593744278 -0.11854463070631 0.0579502210021019 0.145971953868866
-0.0210500004813075 0.0376499965414405 0.00564999974519014 16 -0.0431716106832027 -0.136245280504227 0.0203476920723915 0.144362717866898
-0.0182500004395843 0.0376499965414405 0.00564999974519014 16 -0.0169109236449003 -0.143042892217636 -0.0199633538722992 0.145415902137756
-0.015450000397861 0.0376499965414405 0.00564999974519014 16 0.0102564739063382 -0.13688737154007 -0.0566793046891689 0.14851225912571
-0.0126500003561378 0.0376499965414405 0.00564999974519014 16 0.0385562591254711 -0.117400653660297 -0.0871446579694748 0.151207447052002
-0.0098500003144145 0.0376499965414405 0.00564999974519014 16 0.0572132579982281 -0.0835895910859108 -0.0980984717607498 0.141010239720345
-0.00705000027269125 0.0376499965414405 0.00564999974519014 16 0.0638310387730598 -0.0406194292008877 -0.0899847000837326 0.117565244436264
-0.004250000230968 0.0376499965414405 0.00564999974519014 16 0.0511218793690205 0.00983591377735138 -0.05743408203125 0.0775168687105179