TITLE="DynamicStudio Exported Data"
VARIABLES= "X (m)[m]" "Y (m)[m]" "Z (m)[m]" "Status[-]" "U[-]" "V[-]" "W[-]" "Length[-]"
ZONE T="DynamicStudio Data" F=POINT
-0.0350500006899238 0.0600499968752265 0.00564999974519014 16 0.207031339406967 -0.0153821967542171 -0.23646804690361 0.314667642116547
-0.0322500006482005 0.0600499968752265 0.00564999974519014 16 0.208349823951721 -0.0380200333893299 -0.244028314948082 0.323117613792419
-0.0294500006064773 0.0600499968752265 0.00564999974519014 16 0.200598135590553 -0.0936990082263947 -0.244396328926086 0.329770654439926
-0.026650000564754 0.0600499968752265 0.00564999974519014 16 0.173779636621475 -0.174198463559151 -0.228910148143768 0.336071908473969
-0.0238500005230308 0.0600499968752265 0.00564999974519014 16 0.118924461305141 -0.259655624628067 -0.182686433196068 0.339025676250458
-0.0210500004813075 0.0600499968752265 0.00564999974519014 16 0.0382496677339077 -0.324978590011597 -0.109893441200256 0.345182120800018
-0.0182500004395843 0.0600499968752265 0.00564999974519014 16 -0.059773176908493 -0.344857901334763 -0.0114366784691811 0.35018652677536
-0.015450000397861 0.0600499968752265 0.00564999974519014 16 -0.160250082612038 -0.305819183588028 0.102726608514786 0.360219657421112
-0.0126500003561378 0.0600499968752265 0.00564999974519014 16 -0.24477145075798 -0.206410303711891 0.213479146361351 0.384826719760895
-0.0098500003144145 0.0600499968752265 0.00564999974519014 16 -0.294862598180771 -0.0628146529197693 0.293828874826431 0.420981049537659
-0.00705000027269125 0.0600499968752265 0.00564999974519014 16 -0.294025778770447 0.100429229438305 0.309648424386978 0.438656270503998
-0.004250000230968 0.0600499968752265 0.00564999974519014 16 -0.241960421204567 0.245354384183884 0.260354965925217 0.431889265775681
-0.00145000018924474 0.0600499968752265 0.00564999974519014 16 -0.149306982755661 0.342964857816696 0.158416703343391 0.406218320131302
0.0013499998524785 0.0600499968752265 0.00564999974519014 16 -0.041685126721859 0.37151700258255 0.0458584390580654 0.376650422811508
0.00414999989420176 0.0600499968752265 0.00564999974519014 16 0.0604623071849346 0.337477207183838 -0.0568985752761364 0.347539931535721
0.006949999935925 0.0600499968752265 0.00564999974519014 16 0.137465611100197 0.261663377285004 -0.129027038812637 0.322509676218033
0.00974999997764826 0.0600499968752265 0.00564999974519014 16 0.18504273891449 0.174574688076973 -0.17415277659893 0.308295845985413
0.0125500000193715 0.0600499968752265 0.00564999974519014 16 0.2017822265625 0.0945995897054672 -0.186911091208458 0.29086235165596
0.0153500000610948 0.0600499968752265 0.00564999974519014 16 0.199261859059334 0.0268341768532991 -0.179087474942207 0.269253939390182
0.018150000102818 0.0600499968752265 0.00564999974519014 16 0.184667110443115 -0.0435163863003254 -0.151100635528564 0.242542818188667
0.0209500001445413 0.0600499968752265 0.00564999974519014 16 0.162208124995232 -0.123952053487301 -0.112196385860443 0.232945516705513
0.0237500001862645 0.0600499968752265 0.00564999974519014 16 0.125662907958031 -0.219587951898575 -0.0574929676949978 0.259452283382416
0.0265500002279878 0.0600499968752265 0.00564999974519014 16 0.0678764060139656 -0.308889091014862 0.0133924363180995 0.316542327404022
0.029350000269711 0.0600499968752265 0.00564999974519014 16 -0.00422845780849457 -0.378844052553177 0.0893517807126045 0.389261394739151
0.0321500003114343 0.0600499968752265 0.00564999974519014 16 -0.0708489194512367 -0.416348546743393 0.154171541333199 0.449593752622604
0.0349500003531575 0.0600499968752265 0.00564999974519014 16 -0.101599134504795 -0.431051820516586 0.181826636195183 0.478736877441406
-0.0350500006899238 0.0572499968335032 0.00564999974519014 16 0.163724347949028 -0.0180040672421455 -0.192984610795975 0.253718078136444
-0.0322500006482005 0.0572499968335032 0.00564999974519014 16 0.165709629654884 -0.0407839380204678 -0.199933111667633 0.262861669063568
-0.0294500006064773 0.0572499968335032 0.00564999974519014 16 0.162010699510574 -0.097859226167202 -0.20382621884346 0.278152883052826
-0.026650000564754 0.0572499968335032 0.00564999974519014 16 0.143041238188744 -0.182301163673401 -0.196206599473953 0.303630590438843
-0.0238500005230308 0.0572499968335032 0.00564999974519014 16 0.100240632891655 -0.274594187736511 -0.161970064043999 0.334192246198654
-0.0210500004813075 0.0572499968335032 0.00564999974519014 16 0.0356070064008236 -0.346887528896332 -0.104494377970695 0.364030063152313
-0.0182500004395843 0.0572499968335032 0.00564999974519014 16 -0.044152095913887 -0.371624439954758 -0.0233647227287292 0.374966710805893
-0.015450000397861 0.0572499968335032 0.00564999974519014 16 -0.126498699188232 -0.332553565502167 0.0730387195944786 0.363219559192657
-0.0126500003561378 0.0572499968335032 0.00564999974519014 16 -0.196909487247467 -0.228294655680656 0.167873069643974 0.345069795846939
-0.0098500003144145 0.0572499968335032 0.00564999974519014 16 -0.240630656480789 -0.0744680762290955 0.239188373088837 0.347361028194427
-0.00705000027269125 0.0572499968335032 0.00564999974519014 16 -0.243108049035072 0.100743360817432 0.255380630493164 0.366701543331146
-0.004250000230968 0.0572499968335032 0.00564999974519014 16 -0.202836602926254 0.257929742336273 0.216054037213326 0.392873764038086
-0.00145000018924474 0.0572499968335032 0.00564999974519014 16 -0.126918852329254 0.363002359867096 0.130327314138412 0.406034857034683
0.0013499998524785 0.0572499968335032 0.00564999974519014 16 -0.0363427475094795 0.394158333539963 0.0346594862639904 0.397344768047333
0.00414999989420176 0.0572499968335032 0.00564999974519014 16 0.0499307252466679 0.356504619121552 -0.0511058308184147 0.36359378695488
0.006949999935925 0.0572499968335032 0.00564999974519014 16 0.11486878246069 0.274519890546799 -0.109847582876682 0.317210495471954
0.00974999997764826 0.0572499968335032 0.00564999974519014 16 0.15329697728157 0.179929658770561 -0.143377706408501 0.276463031768799
0.0125500000193715 0.0572499968335032 0.00564999974519014 16 0.165549740195274 0.0953846722841263 -0.149524599313736 0.242616072297096
0.0153500000610948 0.0572499968335032 0.00564999974519014 16 0.161194935441017 0.0242710281163454 -0.138185188174248 0.213700816035271
0.018150000102818 0.0572499968335032 0.00564999974519014 16 0.14734123647213 -0.0466626435518265 -0.110190264880657 0.189812362194061
0.0209500001445413 0.0572499968335032 0.00564999974519014 16 0.127085953950882 -0.130033686757088 -0.0724146068096161 0.195712730288506
0.0237500001862645 0.0572499968335032 0.00564999974519014 16 0.0955879017710686 -0.229484289884567 -0.0196381751447916 0.249370694160461
0.0265500002279878 0.0572499968335032 0.00564999974519014 16 0.0471079759299755 -0.32529205083847 0.045263085514307 0.331787317991257
0.029350000269711 0.0572499968335032 0.00564999974519014 16 -0.0119508234784007 -0.40021151304245 0.112653128802776 0.415936052799225
0.0321500003114343 0.0572499968335032 0.00564999974519014 16 -0.0656474828720093 -0.441384971141815 0.166785106062889 0.47639012336731
0.0349500003531575 0.0572499968335032 0.00564999974519014 16 -0.0905889049172401 -0.456031084060669 0.190807670354843 0.502571642398834
-0.0350500006899238 0.05444999679178 0.00564999974519014 16 0.064140647649765 -0.0278184954077005 -0.0856104493141174 0.110530719161034
-0.0322500006482005 0.05444999679178 0.00564999974519014 16 0.0679114758968353 -0.0503073893487453 -0.0949733182787895 0.127132743597031
-0.0294500006064773 0.05444999679178 0.00564999974519014 16 0.071192778646946 -0.108617156744003 -0.106956504285336 0.168243259191513
-0.026650000564754 0.05444999679178 0.00564999974519014 16 0.0681189224123955 -0.197587370872498 -0.116902031004429 0.239472433924675
-0.0238500005230308 0.05444999679178 0.00564999974519014 16 0.0519475340843201 -0.298423945903778 -0.11073675006628 0.32251825928688
-0.0210500004813075 0.05444999679178 0.00564999974519014 16 0.0246256440877914 -0.380293071269989 -0.0901932045817375 0.391617208719254
-0.0182500004395843 0.05444999679178 0.00564999974519014 16 -0.0117902625352144 -0.412065207958221 -0.051312904804945 0.415415167808533
-0.015450000397861 0.05444999679178 0.00564999974519014 16 -0.0510388761758804 -0.373083740472794 0.0021202121861279 0.376564651727676
-0.0126500003561378 0.05444999679178 0.00564999974519014 16 -0.0874260738492012 -0.261182308197021 0.05904196575284 0.281683295965195
-0.0098500003144145 0.05444999679178 0.00564999974519014 16 -0.114563934504986 -0.090963177382946 0.108954757452011 0.182401582598686
-0.00705000027269125 0.05444999679178 0.00564999974519014 16 -0.122968524694443 0.103006199002266 0.127082735300064 0.204649835824966
-0.004250000230968 0.05444999679178 0.00564999974519014 16 -0.109203331172466 0.278502315282822 0.113027296960354 0.319787561893463
-0.00145000018924474 0.05444999679178 0.00564999974519014 16 -0.0730016008019447 0.394269406795502 0.0672019124031067 0.406563282012939
0.0013499998524785 0.05444999679178 0.00564999974519014 16 -0.0238696485757828 0.429345369338989 0.0122829051688313 0.4301837682724
0.00414999989420176 0.05444999679178 0.00564999974519014 16 0.0248662419617176 0.386866927146912 -0.0355237349867821 0.38928946852684
0.006949999935925 0.05444999679178 0.00564999974519014 16 0.0618589594960213 0.295676708221436 -0.0640544891357422 0.308794796466827
0.00974999997764826 0.05444999679178 0.00564999974519014 16 0.079725980758667 0.18867364525795 -0.0706953853368759 0.21668367087841
0.0125500000193715 0.05444999679178 0.00564999974519014 16 0.0813959538936615 0.0950045213103294 -0.0591298341751099 0.138374477624893
0.0153500000610948 0.05444999679178 0.00564999974519014 16 0.0728250220417976 0.0169421061873436 -0.0380130261182785 0.0838779434561729
0.018150000102818 0.05444999679178 0.00564999974519014 16 0.060985341668129 -0.0558845587074757 -0.00915459729731083 0.0832232087850571
0.0209500001445413 0.05444999679178 0.00564999974519014 16 0.0466025546193123 -0.142660215497017 0.023420762270689 0.151895582675934
0.0237500001862645 0.05444999679178 0.00564999974519014 16 0.0279442723840475 -0.245727121829987 0.0654349103569984 0.255821108818054
0.0265500002279878 0.05444999679178 0.00564999974519014 16 0.0022045262157917 -0.349751502275467 0.109517626464367 0.366503864526749
0.029350000269711 0.05444999679178 0.00564999974519014 16 -0.0259678214788437 -0.432274460792542 0.150257423520088 0.45838063955307
0.0321500003114343 0.05444999679178 0.00564999974519014 16 -0.0502664037048817 -0.480550825595856 0.176101014018059 0.514263927936554
0.0349500003531575 0.05444999679178 0.00564999974519014 16 -0.0608586296439171 -0.497111290693283 0.186106085777283 0.534283518791199
-0.0350500006899238 0.0516499967500567 0.00564999974519014 16 -0.0517292656004429 -0.0404605083167553 0.0313106440007687 0.0727552473545074
-0.0322500006482005 0.0516499967500567 0.00564999974519014 16 -0.0467713288962841 -0.0631630346179008 0.0218829102814198 0.0815842375159264
-0.0294500006064773 0.0516499967500567 0.00564999974519014 16 -0.0361748822033405 -0.121289648115635 0.00251368992030621 0.126594305038452
-0.026650000564754 0.0516499967500567 0.00564999974519014 16 -0.0213911719620228 -0.209319338202477 -0.0261749848723412 0.212031349539757
-0.0238500005230308 0.0516499967500567 0.00564999974519014 16 -0.00655893096700311 -0.308544129133224 -0.0522704720497131 0.313009113073349
-0.0210500004813075 0.0516499967500567 0.00564999974519014 16 0.00949241127818823 -0.389121353626251 -0.0739423707127571 0.396198183298111
-0.0182500004395843 0.0516499967500567 0.00564999974519014 16 0.0241418164223433 -0.420329630374908 -0.0851646438241005 0.429549604654312
-0.015450000397861 0.0516499967500567 0.00564999974519014 16 0.0359685495495796 -0.380806744098663 -0.0846373587846756 0.391753733158112
-0.0126500003561378 0.0516499967500567 0.00564999974519014 16 0.040905024856329 -0.26817125082016 -0.0759926214814186 0.281716018915176
-0.0098500003144145 0.0516499967500567 0.00564999974519014 16 0.0355231277644634 -0.0957175344228745 -0.0560321807861328 0.116461768746376
-0.00705000027269125 0.0516499967500567 0.00564999974519014 16 0.0225568898022175 0.0995276346802711 -0.037677988409996 0.108785077929497
-0.004250000230968 0.0516499967500567 0.00564999974519014 16 0.00723809981718659 0.277407258749008 -0.0215447973459959 0.278336763381958
-0.00145000018924474 0.0516499967500567 0.00564999974519014 16 -0.00270211440511048 0.394725322723389 -0.016827005892992 0.39509305357933
0.0013499998524785 0.0516499967500567 0.00564999974519014 16 -0.00383702246472239 0.432755529880524 -0.0185398329049349 0.433169484138489
0.00414999989420176 0.0516499967500567 0.00564999974519014 16 -0.00192894961219281 0.391738891601562 -0.0170522462576628 0.392114609479904
0.006949999935925 0.0516499967500567 0.00564999974519014 16 -0.00121440936345607 0.299890577793121 -0.00595014030113816 0.299952059984207
0.00974999997764826 0.0516499967500567 0.00564999974519014 16 -0.00961255375295877 0.188336819410324 0.0206925701349974 0.189713835716248
0.0125500000193715 0.0516499967500567 0.00564999974519014 16 -0.0216648802161217 0.0890314802527428 0.0536713451147079 0.106191270053387
0.0153500000610948 0.0516499967500567 0.00564999974519014 16 -0.0350824296474457 0.00521472096443176 0.0855010226368904 0.0925656259059906
0.018150000102818 0.0516499967500567 0.00564999974519014 16 -0.0435217134654522 -0.0691534653306007 0.113278798758984 0.139672577381134
0.0209500001445413 0.0516499967500567 0.00564999974519014 16 -0.0488507859408855 -0.155379846692085 0.137272670865059 0.21300958096981
0.0237500001862645 0.0516499967500567 0.00564999974519014 16 -0.0504532158374786 -0.253584504127502 0.163299590349197 0.305806130170822
0.0265500002279878 0.0516499967500567 0.00564999974519014 16 -0.0479511171579361 -0.354279160499573 0.179426401853561 0.40000855922699
0.029350000269711 0.0516499967500567 0.00564999974519014 16 -0.0388169810175896 -0.433478683233261 0.185277253389359 0.473009705543518
0.0321500003114343 0.0516499967500567 0.00564999974519014 16 -0.0275383293628693 -0.481980890035629 0.176730170845985 0.514098703861237
0.0349500003531575 0.0516499967500567 0.00564999974519014 16 -0.0207842774689198 -0.497692883014679 0.172138765454292 0.527031242847443
-0.0350500006899238 0.0488499967083335 0.00564999974519014 16 -0.143964916467667 -0.056322019547224 0.121712654829025 0.19675375521183
-0.0322500006482005 0.0488499967083335 0.00564999974519014 16 -0.138512656092644 -0.0783361420035362 0.11152620613575 0.194320350885391
-0.0294500006064773 0.0488499967083335 0.00564999974519014 16 -0.123667329549789 -0.132125869393349 0.0865905284881592 0.200620964169502
-0.026650000564754 0.0488499967083335 0.00564999974519014 16 -0.0964346379041672 -0.209723725914955 0.044768713414669 0.235133826732635
-0.0238500005230308 0.0488499967083335 0.00564999974519014 16 -0.0575569458305836 -0.292958229780197 -0.00622407626360655 0.298623621463776
-0.0210500004813075 0.0488499967083335 0.00564999974519014 16 -0.00718197459354997 -0.357822477817535 -0.0621969401836395 0.363258838653564
-0.0182500004395843 0.0488499967083335 0.00564999974519014 16 0.0485690906643867 -0.378698766231537 -0.115092910826206 0.398770719766617
-0.015450000397861 0.0488499967083335 0.00564999974519014 16 0.100672364234924 -0.3379285633564 -0.158270835876465 0.386497467756271
-0.0126500003561378 0.0488499967083335 0.00564999974519014 16 0.138319313526154 -0.233408987522125 -0.188359573483467 0.330289751291275
-0.0098500003144145 0.0488499967083335 0.00564999974519014 16 0.150959387421608 -0.0775014907121658 -0.192823365330696 0.256858080625534
-0.00705000027269125 0.0488499967083335 0.00564999974519014 16 0.136617228388786 0.096085898578167 -0.174155995249748 0.241302877664566
-0.004250000230968 0.0488499967083335 0.00564999974519014 16 0.100708067417145 0.253287374973297 -0.133536145091057 0.303526788949966
-0.00145000018924474 0.0488499967083335 0.00564999974519014 16 0.0559392049908638 0.358020097017288 -0.0874250084161758 0.372760951519012
0.0013499998524785 0.0488499967083335 0.00564999974519014 16 0.0145324552431703 0.395015895366669 -0.0439516678452492 0.397719115018845
0.00414999989420176 0.0488499967083335 0.00564999974519014 16 -0.0211811512708664 0.362425625324249 -0.000870966352522373 0.3630450963974
0.006949999935925 0.0488499967083335 0.00564999974519014 16 -0.0507216230034828 0.281282693147659 0.0455165468156338 0.289420783519745
0.00974999997764826 0.0488499967083335 0.00564999974519014 16 -0.080427847802639 0.17783410847187 0.101354442536831 0.219923466444016
0.0125500000193715 0.0488499967083335 0.00564999974519014 16 -0.104674376547337 0.0806463584303856 0.154311403632164 0.203156515955925
0.0153500000610948 0.0488499967083335 0.00564999974519014 16 -0.121958777308464 -0.00409953948110342 0.196208626031876 0.231059670448303
0.018150000102818 0.0488499967083335 0.00564999974519014 16 -0.126921117305756 -0.0779784545302391 0.221798285841942 0.267177999019623
0.0209500001445413 0.0488499967083335 0.00564999974519014 16 -0.12232057005167 -0.157884448766708 0.233243107795715 0.307070285081863
0.0237500001862645 0.0488499967083335 0.00564999974519014 16 -0.106820613145828 -0.242242485284805 0.235843539237976 0.354562044143677
0.0265500002279878 0.0488499967083335 0.00564999974519014 16 -0.0787669867277145 -0.327249139547348 0.217956751585007 0.401000469923019
0.029350000269711 0.0488499967083335 0.00564999974519014 16 -0.0390238240361214 -0.393025189638138 0.187077805399895 0.437023758888245
0.0321500003114343 0.0488499967083335 0.00564999974519014 16 -8.69020441314206e-05 -0.435190916061401 0.145617827773094 0.458907067775726
0.0349500003531575 0.0488499967083335 0.00564999974519014 16 0.019551694393158 -0.449307501316071 0.126397222280502 0.4671570956707
-0.0350500006899238 0.0460499966666102 0.00564999974519014 16 -0.180774331092834 -0.0696006715297699 0.148284196853638 0.243950441479683
-0.0322500006482005 0.0460499966666102 0.00564999974519014 16 -0.175232782959938 -0.0906275883316994 0.139012381434441 0.24133862555027
-0.0294500006064773 0.0460499966666102 0.00564999974519014 16 -0.15901143848896 -0.137408196926117 0.11397460103035 0.239072918891907
-0.026650000564754 0.0460499966666102 0.00564999974519014 16 -0.127526238560677 -0.198460906744003 0.0699265226721764 0.246047541499138
-0.0238500005230308 0.0460499966666102 0.00564999974519014 16 -0.0796044170856476 -0.256469339132309 0.0111494977027178 0.268770694732666
-0.0210500004813075 0.0460499966666102 0.00564999974519014 16 -0.0163766331970692 -0.295545667409897 -0.057973675429821 0.301622897386551
-0.0182500004395843 0.0460499966666102 0.00564999974519014 16 0.0549722239375114 -0.2991763651371 -0.128452494740486 0.330194622278214
-0.015450000397861 0.0460499966666102 0.00564999974519014 16 0.121460422873497 -0.256908714771271 -0.191347941756248 0.342591226100922
-0.0126500003561378 0.0460499966666102 0.00564999974519014 16 0.170625180006027 -0.168438583612442 -0.238310366868973 0.338047832250595
-0.0098500003144145 0.0460499966666102 0.00564999974519014 16 0.189816921949387 -0.0451407581567764 -0.254044771194458 0.32032310962677
-0.00705000027269125 0.0460499966666102 0.00564999974519014 16 0.176518738269806 0.0887232199311256 -0.235722199082375 0.30756402015686
-0.004250000230968 0.0460499966666102 0.00564999974519014 16 0.135358273983002 0.208742812275887 -0.18450990319252 0.309740722179413
-0.00145000018924474 0.0460499966666102 0.00564999974519014 16 0.0800734609365463 0.291531413793564 -0.119850225746632 0.325217485427856
0.0013499998524785 0.0460499966666102 0.00564999974519014 16 0.0238687936216593 0.324612706899643 -0.0539491474628448 0.329929739236832
0.00414999989420176 0.0460499966666102 0.00564999974519014 16 -0.0265715774148703 0.305198699235916 0.00959056615829468 0.306503295898438
0.006949999935925 0.0460499966666102 0.00564999974519014 16 -0.070026122033596 0.243962407112122 0.0745862871408463 0.26454570889473
0.00974999997764826 0.0460499966666102 0.00564999974519014 16 -0.109104439616203 0.160024330019951 0.144136965274811 0.241427078843117
0.0125500000193715 0.0460499966666102 0.00564999974519014 16 -0.139379590749741 0.0740015208721161 0.205506637692451 0.259105890989304
0.0153500000610948 0.0460499966666102 0.00564999974519014 16 -0.157319262623787 -0.00548126408830285 0.249244838953018 0.294792085886002
0.018150000102818 0.0460499966666102 0.00564999974519014 16 -0.158857777714729 -0.0765978544950485 0.269346505403519 0.321948081254959
0.0209500001445413 0.0460499966666102 0.00564999974519014 16 -0.146614715456963 -0.147543415427208 0.269618183374405 0.340527385473251
0.0237500001862645 0.0460499966666102 0.00564999974519014 16 -0.120434634387493 -0.214835107326508 0.255310744047165 0.354742437601089
0.0265500002279878 0.0460499966666102 0.00564999974519014 16 -0.0791219845414162 -0.277214229106903 0.217110887169838 0.360894948244095
0.029350000269711 0.0460499966666102 0.00564999974519014 16 -0.0254883915185928 -0.32237833738327 0.166553661227226 0.363754838705063
0.0321500003114343 0.0460499966666102 0.00564999974519014 16 0.0253075715154409 -0.351169526576996 0.10983906686306 0.368815839290619
0.0349500003531575 0.0460499966666102 0.00564999974519014 16 0.050298199057579 -0.360580414533615 0.0856348797678947 0.374007314443588
-0.0350500006899238 0.043249996624887 0.00564999974519014 16 -0.168287709355354 -0.0807603374123573 0.127753600478172 0.22619454562664
-0.0322500006482005 0.043249996624887 0.00564999974519014 16 -0.162713468074799 -0.098948560655117 0.11840508133173 0.224245965480804
-0.0294500006064773 0.043249996624887 0.00564999974519014 16 -0.147490188479424 -0.136197328567505 0.0946432873606682 0.221946880221367
-0.026650000564754 0.043249996624887 0.00564999974519014 16 -0.118488073348999 -0.179192721843719 0.0552897714078426 0.221825182437897
-0.0238500005230308 0.043249996624887 0.00564999974519014 16 -0.074383482336998 -0.213196337223053 0.00140119600109756 0.225804209709167
-0.0210500004813075 0.043249996624887 0.00564999974519014 16 -0.0168624483048916 -0.229093715548515 -0.0632577463984489 0.238264173269272
-0.0182500004395843 0.043249996624887 0.00564999974519014 16 0.047491580247879 -0.218324199318886 -0.129519000649452 0.258255839347839
-0.015450000397861 0.043249996624887 0.00564999974519014 16 0.105784714221954 -0.175970911979675 -0.187523022294044 0.278066635131836
-0.0126500003561378 0.043249996624887 0.00564999974519014 16 0.147498041391373 -0.103530965745449 -0.227474480867386 0.290205061435699
-0.0098500003144145 0.043249996624887 0.00564999974519014 16 0.162151709198952 -0.0113347321748734 -0.238390505313873 0.288533687591553
-0.00705000027269125 0.043249996624887 0.00564999974519014 16 0.149320989847183 0.084950178861618 -0.21856002509594 0.277996003627777
-0.004250000230968 0.043249996624887 0.00564999974519014 16 0.113189794123173 0.169527888298035 -0.170223727822304 0.265570610761642
-0.00145000018924474 0.043249996624887 0.00564999974519014 16 0.0655185654759407 0.230439484119415 -0.10945725440979 0.263393104076385
0.0013499998524785 0.043249996624887 0.00564999974519014 16 0.0163090191781521 0.257971823215485 -0.0446958318352699 0.262322634458542
0.00414999989420176 0.043249996624887 0.00564999974519014 16 -0.0282286833971739 0.249259173870087 0.019781481474638 0.251631259918213
0.006949999935925 0.043249996624887 0.00564999974519014 16 -0.0683226361870766 0.206981688737869 0.0870151817798615 0.234693512320518
0.00974999997764826 0.043249996624887 0.00564999974519014 16 -0.104337155818939 0.144036933779716 0.155728787183762 0.236398681998253
0.0125500000193715 0.043249996624887 0.00564999974519014 16 -0.132752507925034 0.0729406699538231 0.213805958628654 0.262023985385895
0.0153500000610948 0.043249996624887 0.00564999974519014 16 -0.148247748613358 0.00290813227184117 0.252046287059784 0.292426377534866
0.018150000102818 0.043249996624887 0.00564999974519014 16 -0.146888136863708 -0.0628601014614105 0.264311105012894 0.308849275112152
0.0209500001445413 0.043249996624887 0.00564999974519014 16 -0.130525290966034 -0.124816946685314 0.254708528518677 0.312237977981567
0.0237500001862645 0.043249996624887 0.00564999974519014 16 -0.0998419001698494 -0.178633391857147 0.227664351463318 0.306119829416275
0.0265500002279878 0.043249996624887 0.00564999974519014 16 -0.0562719628214836 -0.223017975687981 0.180307254195213 0.292257189750671
0.029350000269711 0.043249996624887 0.00564999974519014 16 -0.00377401034347713 -0.252007067203522 0.12451196461916 0.281113922595978
0.0321500003114343 0.043249996624887 0.00564999974519014 16 0.0435734987258911 -0.269255578517914 0.0684953182935715 0.281227350234985
0.0349500003531575 0.043249996624887 0.00564999974519014 16 0.066293902695179 -0.274837255477905 0.0441906154155731 0.286152422428131
-0.0350500006899238 0.0404499965831637 0.00564999974519014 16 -0.127824679017067 -0.0855388417840004 0.0854574367403984 0.17595174908638
-0.0322500006482005 0.0404499965831637 0.00564999974519014 16 -0.122201427817345 -0.100524865090847 0.0768414661288261 0.175906360149384
-0.0294500006064773 0.0404499965831637 0.00564999974519014 16 -0.10844387114048 -0.129195153713226 0.0554708205163479 0.177562594413757
-0.026650000564754 0.0404499965831637 0.00564999974519014 16 -0.0849559158086777 -0.157736644148827 0.0239837989211082 0.180758342146873
-0.0238500005230308 0.0404499965831637 0.00564999974519014 16 -0.0512432381510735 -0.174569249153137 -0.0185962542891502 0.182882785797119
-0.0210500004813075 0.0404499965831637 0.00564999974519014 16 -0.00899624358862638 -0.174755185842514 -0.068714052438736 0.187994480133057
-0.0182500004395843 0.0404499965831637 0.00564999974519014 16 0.0371031276881695 -0.155360892415047 -0.119951412081718 0.199754819273949
-0.015450000397861 0.0404499965831637 0.00564999974519014 16 0.076579175889492 -0.115127414464951 -0.161698460578918 0.212755918502808
-0.0126500003561378 0.0404499965831637 0.00564999974519014 16 0.102298483252525 -0.056628730148077 -0.185787916183472 0.219519808888435
-0.0098500003144145 0.0404499965831637 0.00564999974519014 16 0.107382737100124 0.011935031041503 -0.185771927237511 0.214906260371208
-0.00705000027269125 0.0404499965831637 0.00564999974519014 16 0.0935343652963638 0.0808949545025826 -0.162947848439217 0.204559713602066
-0.004250000230968 0.0404499965831637 0.00564999974519014 16 0.0649899840354919 0.140570446848869 -0.121035642921925 0.196553736925125
-0.00145000018924474 0.0404499965831637 0.00564999974519014 16 0.0309776701033115 0.185012236237526 -0.071500688791275 0.200752317905426
0.0013499998524785 0.0404499965831637 0.00564999974519014 16 -0.00213757925666869 0.207239732146263 -0.0195735245943069 0.208173006772995
0.00414999989420176 0.0404499965831637 0.00564999974519014 16 -0.0317598134279251 0.204903706908226 0.0332648083567619 0.210001826286316
0.006949999935925 0.0404499965831637 0.00564999974519014 16 -0.0598582439124584 0.177136093378067 0.0887656956911087 0.206977188587189
0.00974999997764826 0.0404499965831637 0.00564999974519014 16 -0.0869641155004501 0.132021591067314 0.144813448190689 0.214390739798546
0.0125500000193715 0.0404499965831637 0.00564999974519014 16 -0.108761966228485 0.0757761597633362 0.190052717924118 0.23171366751194
0.0153500000610948 0.0404499965831637 0.00564999974519014 16 -0.119802616536617 0.0166741516441107 0.217367380857468 0.24875545501709
0.018150000102818 0.0404499965831637 0.00564999974519014 16 -0.115456253290176 -0.0424317009747028 0.221038788557053 0.252959966659546
0.0209500001445413 0.0404499965831637 0.00564999974519014 16 -0.0979095548391342 -0.097034178674221 0.206315517425537 0.2481290102005
0.0237500001862645 0.0404499965831637 0.00564999974519014 16 -0.0678016245365143 -0.142610117793083 0.176158010959625 0.236572071909904
0.0265500002279878 0.0404499965831637 0.00564999974519014 16 -0.02910734154284 -0.176102697849274 0.133687824010849 0.223006352782249
0.029350000269711 0.0404499965831637 0.00564999974519014 16 0.014899137429893 -0.195407122373581 0.0856186524033546 0.213860884308815
0.0321500003114343 0.0404499965831637 0.00564999974519014 16 0.0522809326648712 -0.204709902405739 0.0420159623026848 0.215417698025703
0.0349500003531575 0.0404499965831637 0.00564999974519014 16 0.0702689737081528 -0.207168325781822 0.0223926585167646 0.219904243946075
-0.0350500006899238 0.0376499965414405 0.00564999974519014 16 -0.0832593888044357 -0.083824947476387 0.0437833927571774 0.125998944044113
-0.0322500006482005 0.0376499965414405 0.00564999974519014 16 -0.0779635161161423 -0.09535251557827 0.0349666737020016 0.128035470843315
-0.0294500006064773 0.0376499965414405 0.00564999974519014 16 -0.0656597912311554 -0.116815395653248 0.0149130439385772 0.134831160306931
-0.026650000564754 0.0376499965414405 0.00564999974519014 16 -0.0471975617110729 -0.135938853025436 -0.0102739799767733 0.144265502691269
-0.0238500005230308 0.0376499965414405 0.00564999974519014 16 -0.0229533594101667 -0.144229561090469 -0.0418479703366756 0.151921942830086
-0.0210500004813075 0.0376499965414405 0.00564999974519014 16 0.00495608011260629 -0.138676688075066 -0.0765440538525581 0.158476427197456
-0.0182500004395843 0.0376499965414405 0.00564999974519014 16 0.0337497070431709 -0.118177361786366 -0.111305721104145 0.165812835097313
-0.015450000397861 0.0376499965414405 0.00564999974519014 16 0.0557991415262222 -0.0818747878074646 -0.135120376944542 0.167554587125778
-0.0126500003561378 0.0376499965414405 0.00564999974519014 16 0.0668800324201584 -0.0319730378687382 -0.14300724864006 0.16107851266861
-0.0098500003144145 0.0376499965414405 0.00564999974519014 16 0.0628416314721107 0.0247370470315218 -0.131274253129959 0.147627651691437
-0.00705000027269125 0.0376499965414405 0.00564999974519014 16 0.0466137640178204 0.0799852162599564 -0.105383440852165 0.140271693468094