TITLE="DynamicStudio Exported Data"
VARIABLES= "X (m)[m]" "Y (m)[m]" "Z (m)[m]" "Status[-]" "U[-]" "V[-]" "W[-]" "Length[-]"
ZONE T="DynamicStudio Data" F=POINT
-0.0350500006899238 0.0600499968752265 0.00564999974519014 16 0.258546501398087 -0.0858511328697205 -0.340334475040436 0.435940682888031
-0.0322500006482005 0.0600499968752265 0.00564999974519014 16 0.252068072557449 -0.107360750436783 -0.333089768886566 0.431292742490768
-0.0294500006064773 0.0600499968752265 0.00564999974519014 16 0.22818985581398 -0.161481499671936 -0.310753524303436 0.417988777160645
-0.026650000564754 0.0600499968752265 0.00564999974519014 16 0.180593654513359 -0.233873322606087 -0.261447489261627 0.394544780254364
-0.0238500005230308 0.0600499968752265 0.00564999974519014 16 0.107549890875816 -0.307219386100769 -0.192357316613197 0.378090023994446
-0.0210500004813075 0.0600499968752265 0.00564999974519014 16 0.0128837563097477 -0.351932674646378 -0.104655928909779 0.367390066385269
-0.0182500004395843 0.0600499968752265 0.00564999974519014 16 -0.0910175368189812 -0.345072597265244 -0.0127429543063045 0.357101768255234
-0.015450000397861 0.0600499968752265 0.00564999974519014 16 -0.187545105814934 -0.271147698163986 0.0727556720376015 0.3376205265522
-0.0126500003561378 0.0600499968752265 0.00564999974519014 16 -0.252051442861557 -0.13424551486969 0.136533081531525 0.316532880067825
-0.0098500003144145 0.0600499968752265 0.00564999974519014 16 -0.266901761293411 0.0360610410571098 0.156410440802574 0.311450123786926
-0.00705000027269125 0.0600499968752265 0.00564999974519014 16 -0.221029490232468 0.20335091650486 0.124220609664917 0.325017511844635
-0.004250000230968 0.0600499968752265 0.00564999974519014 16 -0.130257606506348 0.322030901908875 0.0479849278926849 0.350675761699677
-0.00145000018924474 0.0600499968752265 0.00564999974519014 16 -0.0173380915075541 0.37859320640564 -0.0453622788190842 0.381695121526718
0.0013499998524785 0.0600499968752265 0.00564999974519014 16 0.0843989700078964 0.367121815681458 -0.124797612428665 0.396832525730133
0.00414999989420176 0.0600499968752265 0.00564999974519014 16 0.15945303440094 0.309976696968079 -0.179656937718391 0.392157405614853
0.006949999935925 0.0600499968752265 0.00564999974519014 16 0.199554488062859 0.224523171782494 -0.200784891843796 0.361313194036484
0.00974999997764826 0.0600499968752265 0.00564999974519014 16 0.214978531002998 0.133206933736801 -0.204136371612549 0.325010031461716
0.0125500000193715 0.0600499968752265 0.00564999974519014 16 0.215970098972321 0.0484682843089104 -0.193439200520515 0.293957442045212
0.0153500000610948 0.0600499968752265 0.00564999974519014 16 0.210203886032104 -0.0246168449521065 -0.186008021235466 0.281763464212418
0.018150000102818 0.0600499968752265 0.00564999974519014 16 0.19925694167614 -0.0945485979318619 -0.177815228700638 0.283303767442703
0.0209500001445413 0.0600499968752265 0.00564999974519014 16 0.175021976232529 -0.169915795326233 -0.165525153279305 0.29479256272316
0.0237500001862645 0.0600499968752265 0.00564999974519014 16 0.131155386567116 -0.255528509616852 -0.12957789003849 0.315098375082016
0.0265500002279878 0.0600499968752265 0.00564999974519014 16 0.0612786151468754 -0.331309586763382 -0.0629874691367149 0.342766016721725
0.029350000269711 0.0600499968752265 0.00564999974519014 16 -0.0241233129054308 -0.383305698633194 0.0291876085102558 0.38517153263092
0.0321500003114343 0.0600499968752265 0.00564999974519014 16 -0.100776091217995 -0.401763886213303 0.113216750323772 0.429404348134995
0.0349500003531575 0.0600499968752265 0.00564999974519014 16 -0.136379957199097 -0.407164633274078 0.154404252767563 0.4563148021698
-0.0350500006899238 0.0572499968335032 0.00564999974519014 16 0.210308417677879 -0.0897153615951538 -0.27996438741684 0.361467212438583
-0.0322500006482005 0.0572499968335032 0.00564999974519014 16 0.204794630408287 -0.112319245934486 -0.274110674858093 0.360129296779633
-0.0294500006064773 0.0572499968335032 0.00564999974519014 16 0.18650133907795 -0.168887555599213 -0.257858872413635 0.360273450613022
-0.026650000564754 0.0572499968335032 0.00564999974519014 16 0.149834662675858 -0.245829641819 -0.222476795315742 0.363838642835617
-0.0238500005230308 0.0572499968335032 0.00564999974519014 16 0.0935647562146187 -0.325193136930466 -0.172861635684967 0.379981696605682
-0.0210500004813075 0.0572499968335032 0.00564999974519014 16 0.0207705348730087 -0.375711143016815 -0.109698496758938 0.391949027776718
-0.0182500004395843 0.0572499968335032 0.00564999974519014 16 -0.0600872077047825 -0.371360778808594 -0.0436539091169834 0.378714889287949
-0.015450000397861 0.0572499968335032 0.00564999974519014 16 -0.136936604976654 -0.294124722480774 0.0201938021928072 0.325067341327667
-0.0126500003561378 0.0572499968335032 0.00564999974519014 16 -0.191516578197479 -0.148046106100082 0.0706462413072586 0.252164900302887
-0.0098500003144145 0.0572499968335032 0.00564999974519014 16 -0.207362785935402 0.0360350832343102 0.0906547456979752 0.229163989424706
-0.00705000027269125 0.0572499968335032 0.00564999974519014 16 -0.173792660236359 0.217174783349037 0.0697448253631592 0.286763161420822
-0.004250000230968 0.0572499968335032 0.00564999974519014 16 -0.100199274718761 0.347634553909302 0.0119033642113209 0.361982554197311
-0.00145000018924474 0.0572499968335032 0.00564999974519014 16 -0.00624536210671067 0.409103572368622 -0.062695138156414 0.413926839828491
0.0013499998524785 0.0572499968335032 0.00564999974519014 16 0.0800812542438507 0.396200478076935 -0.127535998821259 0.423855245113373
0.00414999989420176 0.0572499968335032 0.00564999974519014 16 0.142277479171753 0.331737071275711 -0.171711191534996 0.399721294641495
0.006949999935925 0.0572499968335032 0.00564999974519014 16 0.174156352877617 0.237113922834396 -0.18674823641777 0.348465710878372
0.00974999997764826 0.0572499968335032 0.00564999974519014 16 0.183876544237137 0.137550115585327 -0.184456676244736 0.29454180598259
0.0125500000193715 0.0572499968335032 0.00564999974519014 16 0.181769043207169 0.0477365665137768 -0.167910993099213 0.252017587423325
0.0153500000610948 0.0572499968335032 0.00564999974519014 16 0.175018578767776 -0.0273935254663229 -0.153611481189728 0.234474718570709
0.018150000102818 0.0572499968335032 0.00564999974519014 16 0.16454741358757 -0.0976862236857414 -0.140460908412933 0.237376734614372
0.0209500001445413 0.0572499968335032 0.00564999974519014 16 0.144051164388657 -0.175780639052391 -0.127139359712601 0.26041117310524
0.0237500001862645 0.0572499968335032 0.00564999974519014 16 0.10761521011591 -0.267125934362411 -0.097354456782341 0.303998678922653
0.0265500002279878 0.0572499968335032 0.00564999974519014 16 0.0498892404139042 -0.352385848760605 -0.0431749075651169 0.35850915312767
0.029350000269711 0.0572499968335032 0.00564999974519014 16 -0.0196887981146574 -0.411907345056534 0.0308233536779881 0.413527995347977
0.0321500003114343 0.0572499968335032 0.00564999974519014 16 -0.0821837857365608 -0.435636311769485 0.0999249294400215 0.45444267988205
0.0349500003531575 0.0572499968335032 0.00564999974519014 16 -0.111095607280731 -0.441037863492966 0.134032055735588 0.474153161048889
-0.0350500006899238 0.05444999679178 0.00564999974519014 16 0.0974713787436485 -0.0994613096117973 -0.141842648386955 0.198777660727501
-0.0322500006482005 0.05444999679178 0.00564999974519014 16 0.0955547690391541 -0.12344291806221 -0.141116976737976 0.210434943437576
-0.0294500006064773 0.05444999679178 0.00564999974519014 16 0.0893942415714264 -0.183545365929604 -0.140302315354347 0.247719541192055
-0.026650000564754 0.05444999679178 0.00564999974519014 16 0.0767761394381523 -0.266759753227234 -0.135229974985123 0.308775782585144
-0.0238500005230308 0.05444999679178 0.00564999974519014 16 0.0584263242781162 -0.354185521602631 -0.129768043756485 0.381707668304443
-0.0210500004813075 0.05444999679178 0.00564999974519014 16 0.0346769019961357 -0.412522166967392 -0.120179489254951 0.431068599224091
-0.0182500004395843 0.05444999679178 0.00564999974519014 16 0.0065163797698915 -0.41068372130394 -0.109904207289219 0.425185292959213
-0.015450000397861 0.05444999679178 0.00564999974519014 16 -0.0248760655522346 -0.328099340200424 -0.0929222628474236 0.341910123825073
-0.0126500003561378 0.05444999679178 0.00564999974519014 16 -0.0536510944366455 -0.16786552965641 -0.0711082071065903 0.190035924315453
-0.0098500003144145 0.05444999679178 0.00564999974519014 16 -0.0695176422595978 0.0364865176379681 -0.0515810959041119 0.0939392298460007
-0.00705000027269125 0.05444999679178 0.00564999974519014 16 -0.0614425465464592 0.23825815320015 -0.0484513379633427 0.25077810883522
-0.004250000230968 0.05444999679178 0.00564999974519014 16 -0.0275502093136311 0.385211050510406 -0.0667531937360764 0.391921609640121
-0.00145000018924474 0.05444999679178 0.00564999974519014 16 0.0220086723566055 0.453862637281418 -0.0991198495030403 0.465081095695496
0.0013499998524785 0.05444999679178 0.00564999974519014 16 0.0706248804926872 0.438654601573944 -0.128557831048965 0.462528765201569
0.00414999989420176 0.05444999679178 0.00564999974519014 16 0.102556966245174 0.364041835069656 -0.146281629800797 0.405515342950821
0.006949999935925 0.05444999679178 0.00564999974519014 16 0.113996438682079 0.255377501249313 -0.143355414271355 0.314266800880432
0.00974999997764826 0.05444999679178 0.00564999974519014 16 0.110180892050266 0.142500430345535 -0.126943454146385 0.220365256071091
0.0125500000193715 0.05444999679178 0.00564999974519014 16 0.101055473089218 0.0424537844955921 -0.0972286090254784 0.146519407629967
0.0153500000610948 0.05444999679178 0.00564999974519014 16 0.0929527878761292 -0.0380325205624104 -0.0702949240803719 0.122589021921158
0.018150000102818 0.05444999679178 0.00564999974519014 16 0.0849893689155579 -0.110749334096909 -0.0482754744589329 0.147712990641594
0.0209500001445413 0.05444999679178 0.00564999974519014 16 0.0732135251164436 -0.192708626389503 -0.0356570146977901 0.209208637475967
0.0237500001862645 0.05444999679178 0.00564999974519014 16 0.0538560785353184 -0.291594803333282 -0.0232277140021324 0.29743492603302
0.0265500002279878 0.05444999679178 0.00564999974519014 16 0.024610610678792 -0.388754457235336 -0.00180101848673075 0.38953685760498
0.029350000269711 0.05444999679178 0.00564999974519014 16 -0.00800612382590771 -0.457752883434296 0.0278246402740479 0.458667635917664
0.0321500003114343 0.05444999679178 0.00564999974519014 16 -0.0375465974211693 -0.487884253263474 0.0586495883762836 0.492829144001007
0.0349500003531575 0.05444999679178 0.00564999974519014 16 -0.0502280369400978 -0.493518710136414 0.0728215053677559 0.501384615898132
-0.0350500006899238 0.0516499967500567 0.00564999974519014 16 -0.0321015492081642 -0.11175898462534 0.012503994628787 0.116948403418064
-0.0322500006482005 0.0516499967500567 0.00564999974519014 16 -0.0308564528822899 -0.136551231145859 0.00957280024886131 0.140321046113968
-0.0294500006064773 0.0516499967500567 0.00564999974519014 16 -0.0236100126057863 -0.197206526994705 -0.00583813199773431 0.198700606822968
-0.026650000564754 0.0516499967500567 0.00564999974519014 16 -0.00912136305123568 -0.2803695499897 -0.0337380692362785 0.282539457082748
-0.0238500005230308 0.0516499967500567 0.00564999974519014 16 0.0154565377160907 -0.365811794996262 -0.0772887244820595 0.374206811189651
-0.0210500004813075 0.0516499967500567 0.00564999974519014 16 0.0462995283305645 -0.422534704208374 -0.126018971204758 0.44335088133812
-0.0182500004395843 0.0516499967500567 0.00564999974519014 16 0.0771561115980148 -0.417400300502777 -0.175722569227219 0.459406673908234
-0.015450000397861 0.0516499967500567 0.00564999974519014 16 0.0965260565280914 -0.332000583410263 -0.209754005074501 0.404398828744888
-0.0126500003561378 0.0516499967500567 0.00564999974519014 16 0.0990181341767311 -0.16883984208107 -0.221067741513252 0.295266717672348
-0.0098500003144145 0.0516499967500567 0.00564999974519014 16 0.0862600281834602 0.0376550108194351 -0.206258997321129 0.226718917489052
-0.00705000027269125 0.0516499967500567 0.00564999974519014 16 0.0694169774651527 0.242079898715019 -0.179742768406868 0.309400796890259
-0.004250000230968 0.0516499967500567 0.00564999974519014 16 0.0590582117438316 0.394291549921036 -0.154183000326157 0.427464723587036
-0.00145000018924474 0.0516499967500567 0.00564999974519014 16 0.056124571710825 0.467855781316757 -0.136323779821396 0.49053356051445
0.0013499998524785 0.0516499967500567 0.00564999974519014 16 0.0559491217136383 0.454592823982239 -0.120277218520641 0.473552048206329
0.00414999989420176 0.0516499967500567 0.00564999974519014 16 0.048018641769886 0.377196907997131 -0.102449148893356 0.393800884485245
0.006949999935925 0.0516499967500567 0.00564999974519014 16 0.0324886105954647 0.261682897806168 -0.0749935135245323 0.274148643016815
0.00974999997764826 0.0516499967500567 0.00564999974519014 16 0.0126562751829624 0.142321333289146 -0.0420320443809032 0.148937031626701
0.0125500000193715 0.0516499967500567 0.00564999974519014 16 -0.00403794972226024 0.0364805646240711 0.000271537428488955 0.0367043614387512
0.0153500000610948 0.0516499967500567 0.00564999974519014 16 -0.0128956669941545 -0.0470509827136993 0.0374618731439114 0.0615100376307964
0.018150000102818 0.0516499967500567 0.00564999974519014 16 -0.0164204239845276 -0.121631681919098 0.0649284422397614 0.138851001858711
0.0209500001445413 0.0516499967500567 0.00564999974519014 16 -0.0159206464886665 -0.203844949603081 0.0736521407961845 0.217326641082764
0.0237500001862645 0.0516499967500567 0.00564999974519014 16 -0.0135686872527003 -0.301261782646179 0.0656425952911377 0.308628767728806
0.0265500002279878 0.0516499967500567 0.00564999974519014 16 -0.00795264635235071 -0.397956371307373 0.0479937940835953 0.400918841362
0.029350000269711 0.0516499967500567 0.00564999974519014 16 0.00381236476823688 -0.467055976390839 0.0250777807086706 0.467744261026382
0.0321500003114343 0.0516499967500567 0.00564999974519014 16 0.0158174466341734 -0.499898433685303 0.00757536478340626 0.500205993652344
0.0349500003531575 0.0516499967500567 0.00564999974519014 16 0.0232721753418446 -0.506275773048401 -0.0006795660010539 0.50681084394455
-0.0350500006899238 0.0488499967083335 0.00564999974519014 16 -0.13690647482872 -0.122125536203384 0.126956701278687 0.223105430603027
-0.0322500006482005 0.0488499967083335 0.00564999974519014 16 -0.132349520921707 -0.145437121391296 0.119034998118877 0.229864478111267
-0.0294500006064773 0.0488499967083335 0.00564999974519014 16 -0.114393420517445 -0.200447142124176 0.0891035050153732 0.247395113110542
-0.026650000564754 0.0488499967083335 0.00564999974519014 16 -0.0788274854421616 -0.273552000522614 0.0362772420048714 0.28698518872261
-0.0238500005230308 0.0488499967083335 0.00564999974519014 16 -0.022139860317111 -0.344370186328888 -0.0407639667391777 0.34748050570488
-0.0210500004813075 0.0488499967083335 0.00564999974519014 16 0.0483802706003189 -0.387808859348297 -0.127825617790222 0.411188215017319
-0.0182500004395843 0.0488499967083335 0.00564999974519014 16 0.122001677751541 -0.374251216650009 -0.214888006448746 0.448469877243042
-0.015450000397861 0.0488499967083335 0.00564999974519014 16 0.178832367062569 -0.291843771934509 -0.281086295843124 0.442903250455856
-0.0126500003561378 0.0488499967083335 0.00564999974519014 16 0.206699416041374 -0.143043220043182 -0.313668727874756 0.401962786912918
-0.0098500003144145 0.0488499967083335 0.00564999974519014 16 0.199374437332153 0.0407523922622204 -0.303835272789001 0.365686744451523
-0.00705000027269125 0.0488499967083335 0.00564999974519014 16 0.16767829656601 0.221560776233673 -0.263992816209793 0.383271962404251
-0.004250000230968 0.0488499967083335 0.00564999974519014 16 0.12557215988636 0.358172386884689 -0.209699258208275 0.433623790740967
-0.00145000018924474 0.0488499967083335 0.00564999974519014 16 0.0830625221133232 0.426825135946274 -0.155785918235779 0.461896449327469
0.0013499998524785 0.0488499967083335 0.00564999974519014 16 0.0432408526539803 0.418474197387695 -0.102944329380989 0.433114260435104
0.00414999989420176 0.0488499967083335 0.00564999974519014 16 0.00278284354135394 0.350195407867432 -0.0541891492903233 0.354374140501022
0.006949999935925 0.0488499967083335 0.00564999974519014 16 -0.0358071066439152 0.243502587080002 -0.00323865306563675 0.246142536401749
0.00974999997764826 0.0488499967083335 0.00564999974519014 16 -0.0689052939414978 0.131194457411766 0.044985618442297 0.154866501688957
0.0125500000193715 0.0488499967083335 0.00564999974519014 16 -0.0911606997251511 0.0281205009669065 0.0954812094569206 0.13497294485569
0.0153500000610948 0.0488499967083335 0.00564999974519014 16 -0.0995117947459221 -0.0553495027124882 0.13650980591774 0.177766963839531
0.018150000102818 0.0488499967083335 0.00564999974519014 16 -0.0973635539412498 -0.129903465509415 0.162803575396538 0.229912117123604
0.0209500001445413 0.0488499967083335 0.00564999974519014 16 -0.085054874420166 -0.207008764147758 0.163157731294632 0.276961028575897
0.0237500001862645 0.0488499967083335 0.00564999974519014 16 -0.063342422246933 -0.291069477796555 0.134175822138786 0.326706051826477
0.0265500002279878 0.0488499967083335 0.00564999974519014 16 -0.0276603158563375 -0.370904505252838 0.0784625709056854 0.380120545625687
0.029350000269711 0.0488499967083335 0.00564999974519014 16 0.0200241673737764 -0.425744980573654 0.00877218600362539 0.426305860280991
0.0321500003114343 0.0488499967083335 0.00564999974519014 16 0.0651354044675827 -0.451758831739426 -0.0527661442756653 0.459470242261887
0.0349500003531575 0.0488499967083335 0.00564999974519014 16 0.0877519473433495 -0.456704169511795 -0.0812876001000404 0.472108840942383
-0.0350500006899238 0.0460499966666102 0.00564999974519014 16 -0.181156307458878 -0.125965058803558 0.167371526360512 0.276944100856781
-0.0322500006482005 0.0460499966666102 0.00564999974519014 16 -0.174508094787598 -0.146168649196625 0.155502706766129 0.27567994594574
-0.0294500006064773 0.0460499966666102 0.00564999974519014 16 -0.151603832840919 -0.191092222929001 0.118741124868393 0.271292120218277
-0.026650000564754 0.0460499966666102 0.00564999974519014 16 -0.107903227210045 -0.246681794524193 0.0572438091039658 0.275266915559769
-0.0238500005230308 0.0460499966666102 0.00564999974519014 16 -0.0411385521292686 -0.294635444879532 -0.0267460010945797 0.298693418502808
-0.0210500004813075 0.0460499966666102 0.00564999974519014 16 0.0404091887176037 -0.317574739456177 -0.120722480118275 0.342141091823578
-0.0182500004395843 0.0460499966666102 0.00564999974519014 16 0.124984495341778 -0.294492542743683 -0.212128773331642 0.383856236934662
-0.015450000397861 0.0460499966666102 0.00564999974519014 16 0.19164901971817 -0.220701217651367 -0.283583611249924 0.407256722450256
-0.0126500003561378 0.0460499966666102 0.00564999974519014 16 0.228082358837128 -0.099799744784832 -0.320878684520721 0.406133830547333
-0.0098500003144145 0.0460499966666102 0.00564999974519014 16 0.225301757454872 0.0437322817742825 -0.315181940793991 0.389888495206833
-0.00705000027269125 0.0460499966666102 0.00564999974519014 16 0.193066239356995 0.183778017759323 -0.274956494569778 0.382949084043503
-0.004250000230968 0.0460499966666102 0.00564999974519014 16 0.142729595303535 0.29265895485878 -0.213403090834618 0.389309495687485
-0.00145000018924474 0.0460499966666102 0.00564999974519014 16 0.0873324498534203 0.350928366184235 -0.147309854626656 0.390484124422073
0.0013499998524785 0.0460499966666102 0.00564999974519014 16 0.0315745733678341 0.349499076604843 -0.0794069916009903 0.359794408082962
0.00414999989420176 0.0460499966666102 0.00564999974519014 16 -0.0213970765471458 0.297433882951736 -0.0178612135350704 0.298736959695816
0.006949999935925 0.0460499966666102 0.00564999974519014 16 -0.0686212331056595 0.211030676960945 0.0422972030937672 0.22590234875679
0.00974999997764826 0.0460499966666102 0.00564999974519014 16 -0.105605468153954 0.11664005368948 0.0952789634466171 0.183944270014763
0.0125500000193715 0.0460499966666102 0.00564999974519014 16 -0.129601493477821 0.0264470558613539 0.145825400948524 0.196878239512444
0.0153500000610948 0.0460499966666102 0.00564999974519014 16 -0.137892931699753 -0.0511884652078152 0.184443652629852 0.235911384224892
0.018150000102818 0.0460499966666102 0.00564999974519014 16 -0.132363423705101 -0.122001484036446 0.205253511667252 0.27300813794136
0.0209500001445413 0.0460499966666102 0.00564999974519014 16 -0.112788699567318 -0.1907589584589 0.197097212076187 0.29657644033432
0.0237500001862645 0.0460499966666102 0.00564999974519014 16 -0.0801520720124245 -0.255979001522064 0.157338872551918 0.310974478721619
0.0265500002279878 0.0460499966666102 0.00564999974519014 16 -0.0300135221332312 -0.311344236135483 0.0842741876840591 0.323941648006439
0.029350000269711 0.0460499966666102 0.00564999974519014 16 0.0326887518167496 -0.345854878425598 -0.00377781316637993 0.347416788339615
0.0321500003114343 0.0460499966666102 0.00564999974519014 16 0.0919134393334389 -0.361634910106659 -0.0843388512730598 0.382545322179794
0.0349500003531575 0.0460499966666102 0.00564999974519014 16 0.120541118085384 -0.364791929721832 -0.119791306555271 0.402434170246124
-0.0350500006899238 0.043249996624887 0.00564999974519014 16 -0.171635195612907 -0.122221127152443 0.150888651609421 0.259160250425339
-0.0322500006482005 0.043249996624887 0.00564999974519014 16 -0.164289191365242 -0.137714117765427 0.135343343019485 0.253523051738739
-0.0294500006064773 0.043249996624887 0.00564999974519014 16 -0.141886815428734 -0.170536503195763 0.0963613092899323 0.241867870092392
-0.026650000564754 0.043249996624887 0.00564999974519014 16 -0.101237572729588 -0.207667171955109 0.0379622131586075 0.234127804636955
-0.0238500005230308 0.043249996624887 0.00564999974519014 16 -0.0417058356106281 -0.234631553292274 -0.0337863489985466 0.240692466497421
-0.0210500004813075 0.043249996624887 0.00564999974519014 16 0.0288629550486803 -0.239823296666145 -0.111518412828445 0.266053825616837
-0.0182500004395843 0.043249996624887 0.00564999974519014 16 0.10039858520031 -0.211536571383476 -0.184036239981651 0.297820299863815
-0.015450000397861 0.043249996624887 0.00564999974519014 16 0.155563831329346 -0.149039253592491 -0.240000993013382 0.322510898113251
-0.0126500003561378 0.043249996624887 0.00564999974519014 16 0.185527190566063 -0.0571578703820705 -0.266938000917435 0.330065548419952
-0.0098500003144145 0.043249996624887 0.00564999974519014 16 0.182423636317253 0.0474110990762711 -0.259059309959412 0.32037153840065
-0.00705000027269125 0.043249996624887 0.00564999974519014 16 0.155546128749847 0.147252559661865 -0.223800614476204 0.309781581163406
-0.004250000230968 0.043249996624887 0.00564999974519014 16 0.112423449754715 0.226296335458755 -0.169838398694992 0.304457128047943
-0.00145000018924474 0.043249996624887 0.00564999974519014 16 0.0657171159982681 0.270583391189575 -0.11210934817791 0.300170958042145
0.0013499998524785 0.043249996624887 0.00564999974519014 16 0.0176707301288843 0.273843377828598 -0.050951711833477 0.279103070497513
0.00414999989420176 0.043249996624887 0.00564999974519014 16 -0.0269506294280291 0.238500505685806 0.00464292848482728 0.240063294768333
0.006949999935925 0.043249996624887 0.00564999974519014 16 -0.0677540525794029 0.175626575946808 0.0599450543522835 0.197556853294373
0.00974999997764826 0.043249996624887 0.00564999974519014 16 -0.099756546318531 0.102263651788235 0.108758457005024 0.179548397660255
0.0125500000193715 0.043249996624887 0.00564999974519014 16 -0.121450275182724 0.0281505770981312 0.154292747378349 0.19836550951004
0.0153500000610948 0.043249996624887 0.00564999974519014 16 -0.129102393984795 -0.0407194308936596 0.187141984701157 0.230971038341522
0.018150000102818 0.043249996624887 0.00564999974519014 16 -0.122697420418262 -0.104917280375957 0.201833799481392 0.258455365896225
0.0209500001445413 0.043249996624887 0.00564999974519014 16 -0.101363785564899 -0.164355278015137 0.187024116516113 0.26882204413414
0.0237500001862645 0.043249996624887 0.00564999974519014 16 -0.0659066960215569 -0.2139772772789 0.142524570226669 0.265411406755447
0.0265500002279878 0.043249996624887 0.00564999974519014 16 -0.0148941110819578 -0.249873444437981 0.0660090371966362 0.258874028921127
0.029350000269711 0.043249996624887 0.00564999974519014 16 0.0450288355350494 -0.267769157886505 -0.0202223416417837 0.272280842065811
0.0321500003114343 0.043249996624887 0.00564999974519014 16 0.0995038822293282 -0.273277431726456 -0.0979231297969818 0.30687215924263
0.0349500003531575 0.043249996624887 0.00564999974519014 16 0.125293508172035 -0.273531019687653 -0.131863877177238 0.328490138053894
-0.0350500006899238 0.0404499965831637 0.00564999974519014 16 -0.131102189421654 -0.111952543258667 0.116765908896923 0.208219677209854
-0.0322500006482005 0.0404499965831637 0.00564999974519014 16 -0.124632149934769 -0.123554319143295 0.10032769292593 0.202149659395218
-0.0294500006064773 0.0404499965831637 0.00564999974519014 16 -0.106435261666775 -0.146803319454193 0.0641990900039673 0.19235697388649
-0.026650000564754 0.0404499965831637 0.00564999974519014 16 -0.075412206351757 -0.169901713728905 0.0148583743721247 0.186478868126869
-0.0238500005230308 0.0404499965831637 0.00564999974519014 16 -0.0312418732792139 -0.182303324341774 -0.0398022048175335 0.189195066690445
-0.0210500004813075 0.0404499965831637 0.00564999974519014 16 0.0191606320440769 -0.176185503602028 -0.096662774682045 0.201871633529663
-0.0182500004395843 0.0404499965831637 0.00564999974519014 16 0.068514309823513 -0.147215336561203 -0.14750562608242 0.219372913241386
-0.015450000397861 0.0404499965831637 0.00564999974519014 16 0.103598959743977 -0.0952883809804916 -0.184078395366669 0.231727167963982
-0.0126500003561378 0.0404499965831637 0.00564999974519014 16 0.120378963649273 -0.0263803321868181 -0.197832658886909 0.233076766133308
-0.0098500003144145 0.0404499965831637 0.00564999974519014 16 0.113532319664955 0.0499139130115509 -0.184087678790092 0.221966803073883
-0.00705000027269125 0.0404499965831637 0.00564999974519014 16 0.0922771617770195 0.121155008673668 -0.152405872941017 0.215455710887909
-0.004250000230968 0.0404499965831637 0.00564999974519014 16 0.0603295937180519 0.178545460104942 -0.106994144618511 0.216716155409813
-0.00145000018924474 0.0404499965831637 0.00564999974519014 16 0.0286603905260563 0.211795151233673 -0.0622094608843327 0.222595199942589
0.0013499998524785 0.0404499965831637 0.00564999974519014 16 -0.00343266921117902 0.217387124896049 -0.0154526876285672 0.217962682247162
0.00414999989420176 0.0404499965831637 0.00564999974519014 16 -0.0315397903323174 0.194576472043991 0.0247364901006222 0.198662161827087
0.006949999935925 0.0404499965831637 0.00564999974519014 16 -0.0582580082118511 0.150550350546837 0.0655146017670631 0.174217015504837
0.00974999997764826 0.0404499965831637 0.00564999974519014 16 -0.08001559227705 0.094967432320118 0.102710619568825 0.161154523491859
0.0125500000193715 0.0404499965831637 0.00564999974519014 16 -0.0965298563241959 0.0356755182147026 0.139896273612976 0.173671305179596
0.0153500000610948 0.0404499965831637 0.00564999974519014 16 -0.103071324527264 -0.0229211263358593 0.165237620472908 0.196093216538429
0.018150000102818 0.0404499965831637 0.00564999974519014 16 -0.0970997661352158 -0.0790308713912964 0.172496572136879 0.213141530752182
0.0209500001445413 0.0404499965831637 0.00564999974519014 16 -0.0773091539740562 -0.130593299865723 0.151496112346649 0.214435040950775
0.0237500001862645 0.0404499965831637 0.00564999974519014 16 -0.0442756563425064 -0.171590402722359 0.107485875487328 0.207260251045227
0.0265500002279878 0.0404499965831637 0.00564999974519014 16 -0.000646208820398897 -0.197868093848228 0.0421010442078114 0.202298536896706
0.029350000269711 0.0404499965831637 0.00564999974519014 16 0.0478262789547443 -0.208103731274605 -0.0247830525040627 0.214962124824524
0.0321500003114343 0.0404499965831637 0.00564999974519014 16 0.0894452333450317 -0.208260551095009 -0.0825062245130539 0.24120569229126
0.0349500003531575 0.0404499965831637 0.00564999974519014 16 0.108973763883114 -0.20677886903286 -0.106437616050243 0.256830185651779
-0.0350500006899238 0.0376499965414405 0.00564999974519014 16 -0.0854853168129921 -0.0994175001978874 0.0896981507539749 0.158862635493279
-0.0322500006482005 0.0376499965414405 0.00564999974519014 16 -0.0807772725820541 -0.108299911022186 0.0741243436932564 0.154104694724083
-0.0294500006064773 0.0376499965414405 0.00564999974519014 16 -0.0675488188862801 -0.125171780586243 0.0423460192978382 0.148404866456985
-0.026650000564754 0.0376499965414405 0.00564999974519014 16 -0.0456920936703682 -0.140074968338013 0.00142624566797167 0.147345840930939
-0.0238500005230308 0.0376499965414405 0.00564999974519014 16 -0.0147279743105173 -0.144757509231567 -0.0403202213346958 0.150987967848778
-0.0210500004813075 0.0376499965414405 0.00564999974519014 16 0.0188245680183172 -0.133833304047585 -0.0814241468906403 0.157783433794975
-0.0182500004395843 0.0376499965414405 0.00564999974519014 16 0.0495080798864365 -0.106637597084045 -0.116157978773117 0.165273427963257
-0.015450000397861 0.0376499965414405 0.00564999974519014 16 0.0671595707535744 -0.0624259449541569 -0.136412128806114 0.164364457130432
-0.0126500003561378 0.0376499965414405 0.00564999974519014 16 0.071196623146534 -0.00740235950797796 -0.138074472546577 0.155525922775269
-0.0098500003144145 0.0376499965414405 0.00564999974519014 16 0.0585084557533264 0.0526876673102379 -0.116331070661545 0.140471160411835
-0.00705000027269125 0.0376499965414405 0.00564999974519014 16 0.0385479629039764 0.10674274712801 -0.0848983451724052 0.141731038689613