TITLE="DynamicStudio Exported Data"
VARIABLES= "X (m)[m]" "Y (m)[m]" "Z (m)[m]" "Status[-]" "U[-]" "V[-]" "W[-]" "Length[-]"
ZONE T="DynamicStudio Data" F=POINT
-0.0350500006899238 0.0600499968752265 0.00564999974519014 16 0.123707674443722 0.236601367592812 -0.0895672217011452 0.281613349914551
-0.0322500006482005 0.0600499968752265 0.00564999974519014 16 0.13545349240303 0.214316293597221 -0.104367986321449 0.274174749851227
-0.0294500006064773 0.0600499968752265 0.00564999974519014 16 0.156498998403549 0.166207686066628 -0.129102185368538 0.262267619371414
-0.026650000564754 0.0600499968752265 0.00564999974519014 16 0.179694533348083 0.10685072094202 -0.168952748179436 0.268797755241394
-0.0238500005230308 0.0600499968752265 0.00564999974519014 16 0.196484193205833 0.0420666448771954 -0.204813659191132 0.286922067403793
-0.0210500004813075 0.0600499968752265 0.00564999974519014 16 0.207557544112206 -0.0293333046138287 -0.242476567625999 0.320523738861084
-0.0182500004395843 0.0600499968752265 0.00564999974519014 16 0.204947024583817 -0.115056909620762 -0.260092794895172 0.350556194782257
-0.015450000397861 0.0600499968752265 0.00564999974519014 16 0.183950617909431 -0.208544284105301 -0.256692230701447 0.378443449735641
-0.0126500003561378 0.0600499968752265 0.00564999974519014 16 0.134329661726952 -0.295853346586227 -0.21726530790329 0.390868097543716
-0.0098500003144145 0.0600499968752265 0.00564999974519014 16 0.0587249621748924 -0.350219041109085 -0.148078098893166 0.384745538234711
-0.00705000027269125 0.0600499968752265 0.00564999974519014 16 -0.0358520857989788 -0.355322271585464 -0.0534339994192123 0.361101776361465
-0.004250000230968 0.0600499968752265 0.00564999974519014 16 -0.13445733487606 -0.300143718719482 0.0531176552176476 0.33314636349678
-0.00145000018924474 0.0600499968752265 0.00564999974519014 16 -0.219261929392815 -0.191000446677208 0.152510777115822 0.328354239463806
0.0013499998524785 0.0600499968752265 0.00564999974519014 16 -0.269728690385818 -0.0430286042392254 0.223334923386574 0.352822214365005
0.00414999989420176 0.0600499968752265 0.00564999974519014 16 -0.268534600734711 0.112312637269497 0.241803213953972 0.378409504890442
0.006949999935925 0.0600499968752265 0.00564999974519014 16 -0.215562090277672 0.24301116168499 0.208146885037422 0.385806381702423
0.00974999997764826 0.0600499968752265 0.00564999974519014 16 -0.124354228377342 0.31933057308197 0.130523473024368 0.366704732179642
0.0125500000193715 0.0600499968752265 0.00564999974519014 16 -0.0247515775263309 0.336295455694199 0.0417927280068398 0.339785099029541
0.0153500000610948 0.0600499968752265 0.00564999974519014 16 0.0643255338072777 0.303242206573486 -0.0415423661470413 0.312760889530182
0.018150000102818 0.0600499968752265 0.00564999974519014 16 0.128627553582191 0.2428879737854 -0.100728906691074 0.292721599340439
0.0209500001445413 0.0600499968752265 0.00564999974519014 16 0.172648936510086 0.17562760412693 -0.142306581139565 0.284436047077179
0.0237500001862645 0.0600499968752265 0.00564999974519014 16 0.202194720506668 0.109448529779911 -0.174316138029099 0.288526952266693
0.0265500002279878 0.0600499968752265 0.00564999974519014 16 0.22207635641098 0.045782845467329 -0.205330729484558 0.305899798870087
0.029350000269711 0.0600499968752265 0.00564999974519014 16 0.235395342111588 -0.0175476018339396 -0.235540211200714 0.333463758230209
0.0321500003114343 0.0600499968752265 0.00564999974519014 16 0.239869087934494 -0.0709372535347939 -0.256871849298477 0.358542084693909
0.0349500003531575 0.0600499968752265 0.00564999974519014 16 0.240691974759102 -0.0956777855753899 -0.264591991901398 0.37026447057724
-0.0350500006899238 0.0572499968335032 0.00564999974519014 16 0.0981304347515106 0.247441053390503 -0.0637726634740829 0.273721784353256
-0.0322500006482005 0.0572499968335032 0.00564999974519014 16 0.108124621212482 0.224535375833511 -0.077749028801918 0.26105934381485
-0.0294500006064773 0.0572499968335032 0.00564999974519014 16 0.125912725925446 0.174521207809448 -0.10148161649704 0.237928941845894
-0.026650000564754 0.0572499968335032 0.00564999974519014 16 0.145208165049553 0.112325310707092 -0.138737305998802 0.230109602212906
-0.0238500005230308 0.0572499968335032 0.00564999974519014 16 0.158262968063354 0.0444589890539646 -0.17149493098259 0.237559005618095
-0.0210500004813075 0.0572499968335032 0.00564999974519014 16 0.167069911956787 -0.0312146656215191 -0.205631822347641 0.266779243946075
-0.0182500004395843 0.0572499968335032 0.00564999974519014 16 0.166037067770958 -0.121188960969448 -0.223351746797562 0.303547501564026
-0.015450000397861 0.0572499968335032 0.00564999974519014 16 0.151510521769524 -0.220826700329781 -0.225119084119797 0.349854946136475
-0.0126500003561378 0.0572499968335032 0.00564999974519014 16 0.114881090819836 -0.314046859741211 -0.19831120967865 0.38878071308136
-0.0098500003144145 0.0572499968335032 0.00564999974519014 16 0.0563087277114391 -0.374330192804337 -0.145649880170822 0.405595421791077
-0.00705000027269125 0.0572499968335032 0.00564999974519014 16 -0.0192727632820606 -0.381685882806778 -0.0701735317707062 0.388561278581619
-0.004250000230968 0.0572499968335032 0.00564999974519014 16 -0.101566344499588 -0.323992669582367 0.0196720659732819 0.340108752250671
-0.00145000018924474 0.0572499968335032 0.00564999974519014 16 -0.175302371382713 -0.206966489553452 0.107423909008503 0.291729241609573
0.0013499998524785 0.0572499968335032 0.00564999974519014 16 -0.222772821784019 -0.0471796728670597 0.175223141908646 0.287326991558075
0.00414999989420176 0.0572499968335032 0.00564999974519014 16 -0.226438522338867 0.120787844061852 0.199487119913101 0.32505264878273
0.006949999935925 0.0572499968335032 0.00564999974519014 16 -0.185110792517662 0.262168496847153 0.178289234638214 0.367131292819977
0.00974999997764826 0.0572499968335032 0.00564999974519014 16 -0.1091613098979 0.344876229763031 0.1161108314991 0.379917800426483
0.0125500000193715 0.0572499968335032 0.00564999974519014 16 -0.0250899642705917 0.362591564655304 0.0418218895792961 0.365856826305389
0.0153500000610948 0.0572499968335032 0.00564999974519014 16 0.05072320997715 0.325338274240494 -0.0295297410339117 0.330590128898621
0.018150000102818 0.0572499968335032 0.00564999974519014 16 0.105484135448933 0.25796639919281 -0.0802121981978416 0.290013045072556
0.0209500001445413 0.0572499968335032 0.00564999974519014 16 0.143130347132683 0.183974429965019 -0.115950763225555 0.260341078042984
0.0237500001862645 0.0572499968335032 0.00564999974519014 16 0.16853079199791 0.113776594400406 -0.143101066350937 0.248647660017014
0.0265500002279878 0.0572499968335032 0.00564999974519014 16 0.185715362429619 0.0485984198749065 -0.169688805937767 0.256215333938599
0.029350000269711 0.0572499968335032 0.00564999974519014 16 0.197062686085701 -0.0150928366929293 -0.195652291178703 0.278103083372116
0.0321500003114343 0.0572499968335032 0.00564999974519014 16 0.200906649231911 -0.0688092410564423 -0.214463472366333 0.301815778017044
0.0349500003531575 0.0572499968335032 0.00564999974519014 16 0.201790988445282 -0.0944199785590172 -0.222112044692039 0.314592570066452
-0.0350500006899238 0.05444999679178 0.00564999974519014 16 0.0388701036572456 0.265523195266724 -0.00476966425776482 0.268395602703094
-0.0322500006482005 0.05444999679178 0.00564999974519014 16 0.0451675169169903 0.240948349237442 -0.0160222556442022 0.245668321847916
-0.0294500006064773 0.05444999679178 0.00564999974519014 16 0.0542765595018864 0.186779424548149 -0.0343365110456944 0.197513267397881
-0.026650000564754 0.05444999679178 0.00564999974519014 16 0.0637864470481873 0.118766494095325 -0.063828818500042 0.149158671498299
-0.0238500005230308 0.05444999679178 0.00564999974519014 16 0.0675457939505577 0.0449954606592655 -0.0881669223308563 0.119835019111633
-0.0210500004813075 0.05444999679178 0.00564999974519014 16 0.0712619945406914 -0.0375186987221241 -0.115325145423412 0.140662059187889
-0.0182500004395843 0.05444999679178 0.00564999974519014 16 0.0733731389045715 -0.133249342441559 -0.133759096264839 0.202559873461723
-0.015450000397861 0.05444999679178 0.00564999974519014 16 0.073794811964035 -0.240668386220932 -0.147610127925873 0.291814476251602
-0.0126500003561378 0.05444999679178 0.00564999974519014 16 0.0660810694098473 -0.341483801603317 -0.148350074887276 0.378134429454803
-0.0098500003144145 0.05444999679178 0.00564999974519014 16 0.0463601239025593 -0.409807205200195 -0.133443176746368 0.433472335338593
-0.00705000027269125 0.05444999679178 0.00564999974519014 16 0.0141567848622799 -0.420433461666107 -0.102250896394253 0.432920277118683
-0.004250000230968 0.05444999679178 0.00564999974519014 16 -0.0294911712408066 -0.359075427055359 -0.0528122819960117 0.364134639501572
-0.00145000018924474 0.05444999679178 0.00564999974519014 16 -0.0758650377392769 -0.230575263500214 0.0052056279964745 0.242791175842285
0.0013499998524785 0.05444999679178 0.00564999974519014 16 -0.113677844405174 -0.0536089986562729 0.0624239295721054 0.140332907438278
0.00414999989420176 0.05444999679178 0.00564999974519014 16 -0.126800447702408 0.133123636245728 0.0974472537636757 0.208077445626259
0.006949999935925 0.05444999679178 0.00564999974519014 16 -0.111915782094002 0.291201382875443 0.104076579213142 0.328869760036469
0.00974999997764826 0.05444999679178 0.00564999974519014 16 -0.0722461491823196 0.384242087602615 0.0789424926042557 0.398865163326263
0.0125500000193715 0.05444999679178 0.00564999974519014 16 -0.0257976725697517 0.403411477804184 0.0414063185453415 0.406350612640381
0.0153500000610948 0.05444999679178 0.00564999974519014 16 0.0181156024336815 0.359609931707382 0.000615101249422878 0.360066443681717
0.018150000102818 0.05444999679178 0.00564999974519014 16 0.0498103760182858 0.281111776828766 -0.0279986429959536 0.286860287189484
0.0209500001445413 0.05444999679178 0.00564999974519014 16 0.0723167806863785 0.196647152304649 -0.0486396290361881 0.215094476938248
0.0237500001862645 0.05444999679178 0.00564999974519014 16 0.0878498405218124 0.119586259126663 -0.0644368231296539 0.161773219704628
0.0265500002279878 0.05444999679178 0.00564999974519014 16 0.0987034440040588 0.0523228608071804 -0.0813207104802132 0.138177827000618
0.029350000269711 0.05444999679178 0.00564999974519014 16 0.106024496257305 -0.0100331055000424 -0.0986351296305656 0.145157650113106
0.0321500003114343 0.05444999679178 0.00564999974519014 16 0.108294501900673 -0.0616421774029732 -0.111046947538853 0.166909798979759
0.0349500003531575 0.05444999679178 0.00564999974519014 16 0.10871222615242 -0.0857205465435982 -0.116016365587711 0.1806271225214
-0.0350500006899238 0.0516499967500567 0.00564999974519014 16 -0.0222188141196966 0.271214306354523 0.0628787949681282 0.279293060302734
-0.0322500006482005 0.0516499967500567 0.00564999974519014 16 -0.0224746484309435 0.24634176492691 0.0564984939992428 0.25373500585556
-0.0294500006064773 0.0516499967500567 0.00564999974519014 16 -0.0264721550047398 0.190362617373466 0.0457970090210438 0.197575464844704
-0.026650000564754 0.0516499967500567 0.00564999974519014 16 -0.0308968368917704 0.118296541273594 0.0268720742315054 0.125183045864105
-0.0238500005230308 0.0516499967500567 0.00564999974519014 16 -0.0386472344398499 0.0397043600678444 0.0115186087787151 0.0565926060080528
-0.0210500004813075 0.0516499967500567 0.00564999974519014 16 -0.040684413164854 -0.0474828407168388 -0.00738761387765408 0.0629636272788048
-0.0182500004395843 0.0516499967500567 0.00564999974519014 16 -0.0356357730925083 -0.144156843423843 -0.0258495546877384 0.150729238986969
-0.015450000397861 0.0516499967500567 0.00564999974519014 16 -0.0196025595068932 -0.250580966472626 -0.0520751662552357 0.256684452295303
-0.0126500003561378 0.0516499967500567 0.00564999974519014 16 0.00375836784951389 -0.348548233509064 -0.0836727470159531 0.358470559120178
-0.0098500003144145 0.0516499967500567 0.00564999974519014 16 0.0280312523245811 -0.415605783462524 -0.113448023796082 0.431722581386566
-0.00705000027269125 0.0516499967500567 0.00564999974519014 16 0.0466658063232899 -0.425201088190079 -0.136081635951996 0.448878467082977
-0.004250000230968 0.0516499967500567 0.00564999974519014 16 0.0510015301406384 -0.362704247236252 -0.13809622824192 0.39144104719162
-0.00145000018924474 0.0516499967500567 0.00564999974519014 16 0.0408746153116226 -0.23187780380249 -0.119916670024395 0.26423105597496
0.0013499998524785 0.0516499967500567 0.00564999974519014 16 0.0193037427961826 -0.0522416569292545 -0.0810352712869644 0.0983287319540977
0.00414999989420176 0.0516499967500567 0.00564999974519014 16 -0.00154883333016187 0.137394174933434 -0.0378039889037609 0.14250859618187
0.006949999935925 0.0516499967500567 0.00564999974519014 16 -0.015945928171277 0.29842147231102 -0.000891564646735787 0.298848539590836
0.00974999997764826 0.0516499967500567 0.00564999974519014 16 -0.0197538677603006 0.39528551697731 0.0192412678152323 0.3962462246418
0.0125500000193715 0.0516499967500567 0.00564999974519014 16 -0.0197956282645464 0.417205780744553 0.0291611347347498 0.418691873550415
0.0153500000610948 0.0516499967500567 0.00564999974519014 16 -0.0173922386020422 0.374268859624863 0.0313550494611263 0.37598243355751
0.018150000102818 0.0516499967500567 0.00564999974519014 16 -0.0170360505580902 0.293250530958176 0.0346501395106316 0.295781582593918
0.0209500001445413 0.0516499967500567 0.00564999974519014 16 -0.0156927295029163 0.204820334911346 0.0358796790242195 0.208530530333519
0.0237500001862645 0.0516499967500567 0.00564999974519014 16 -0.0137048084288836 0.124263115227222 0.0353243909776211 0.129911333322525
0.0265500002279878 0.0516499967500567 0.00564999974519014 16 -0.0104557173326612 0.0550136975944042 0.0309657733887434 0.0639899075031281
0.029350000269711 0.0516499967500567 0.00564999974519014 16 -0.00708558317273855 -0.00768643757328391 0.0230788346379995 0.0253361295908689
0.0321500003114343 0.0516499967500567 0.00564999974519014 16 -0.00526615418493748 -0.0593155100941658 0.0162773132324219 0.0617334023118019
0.0349500003531575 0.0516499967500567 0.00564999974519014 16 -0.00399168208241463 -0.083492137491703 0.0116508910432458 0.0843955799937248
-0.0350500006899238 0.0488499967083335 0.00564999974519014 16 -0.0621472634375095 0.257114827632904 0.112828642129898 0.287577152252197
-0.0322500006482005 0.0488499967083335 0.00564999974519014 16 -0.0693646892905235 0.232536867260933 0.113068886101246 0.267711460590363
-0.0294500006064773 0.0488499967083335 0.00564999974519014 16 -0.0871821343898773 0.177237093448639 0.112704172730446 0.227411404252052
-0.026650000564754 0.0488499967083335 0.00564999974519014 16 -0.106176771223545 0.105022303760052 0.107117891311646 0.183786377310753
-0.0238500005230308 0.0488499967083335 0.00564999974519014 16 -0.124644756317139 0.0263526774942875 0.100855700671673 0.162488922476768
-0.0210500004813075 0.0488499967083335 0.00564999974519014 16 -0.131880208849907 -0.0584851913154125 0.0888116508722305 0.169411972165108
-0.0182500004395843 0.0488499967083335 0.00564999974519014 16 -0.124581545591354 -0.147206097841263 0.0691092386841774 0.204856738448143
-0.015450000397861 0.0488499967083335 0.00564999974519014 16 -0.096790686249733 -0.240334093570709 0.0323341339826584 0.261102288961411
-0.0126500003561378 0.0488499967083335 0.00564999974519014 16 -0.0502696223556995 -0.322710335254669 -0.0238415915518999 0.327471226453781
-0.0098500003144145 0.0488499967083335 0.00564999974519014 16 0.00718434061855078 -0.377437978982925 -0.0898981317877769 0.38806277513504
-0.00705000027269125 0.0488499967083335 0.00564999974519014 16 0.064995713531971 -0.381559997797012 -0.156733468174934 0.417585760354996
-0.004250000230968 0.0488499967083335 0.00564999974519014 16 0.108058154582977 -0.323038786649704 -0.202195048332214 0.396123021841049
-0.00145000018924474 0.0488499967083335 0.00564999974519014 16 0.129112139344215 -0.204864516854286 -0.21939554810524 0.326762646436691
0.0013499998524785 0.0488499967083335 0.00564999974519014 16 0.124377362430096 -0.0446838662028313 -0.200126975774765 0.239827394485474
0.00414999989420176 0.0488499967083335 0.00564999974519014 16 0.101465672254562 0.12520931661129 -0.156817719340324 0.224865406751633
0.006949999935925 0.0488499967083335 0.00564999974519014 16 0.0668827295303345 0.270764976739883 -0.100633271038532 0.296503007411957
0.00974999997764826 0.0488499967083335 0.00564999974519014 16 0.0290575455874205 0.361842393875122 -0.0447271801531315 0.365752369165421
0.0125500000193715 0.0488499967083335 0.00564999974519014 16 -0.00995279010385275 0.386082172393799 0.0083596920594573 0.386300921440125
0.0153500000610948 0.0488499967083335 0.00564999974519014 16 -0.0447431802749634 0.351534932851791 0.0533767268061638 0.358368307352066
0.018150000102818 0.0488499967083335 0.00564999974519014 16 -0.0738185942173004 0.279927849769592 0.0902144089341164 0.303228348493576
0.0209500001445413 0.0488499967083335 0.00564999974519014 16 -0.0925602838397026 0.198308989405632 0.114510074257851 0.246994763612747
0.0237500001862645 0.0488499967083335 0.00564999974519014 16 -0.102482952177525 0.121346831321716 0.128429338335991 0.204259395599365
0.0265500002279878 0.0488499967083335 0.00564999974519014 16 -0.104413889348507 0.053368091583252 0.133413925766945 0.177622318267822
0.029350000269711 0.0488499967083335 0.00564999974519014 16 -0.102502480149269 -0.0076376935467124 0.131059765815735 0.166558563709259
0.0321500003114343 0.0488499967083335 0.00564999974519014 16 -0.0994730591773987 -0.0572147145867348 0.127326920628548 0.171407580375671
0.0349500003531575 0.0488499967083335 0.00564999974519014 16 -0.0971842259168625 -0.0797783136367798 0.123141445219517 0.175991967320442
-0.0350500006899238 0.0460499966666102 0.00564999974519014 16 -0.0645424351096153 0.22143030166626 0.127037480473518 0.263316571712494
-0.0322500006482005 0.0460499966666102 0.00564999974519014 16 -0.0766574367880821 0.199673935770988 0.131905823945999 0.251287072896957
-0.0294500006064773 0.0460499966666102 0.00564999974519014 16 -0.103654220700264 0.150018259882927 0.139687284827232 0.229700267314911
-0.026650000564754 0.0460499966666102 0.00564999974519014 16 -0.132468923926353 0.083783932030201 0.144324883818626 0.21306674182415
-0.0238500005230308 0.0460499966666102 0.00564999974519014 16 -0.156570702791214 0.0109734758734703 0.143945083022118 0.212967112660408
-0.0210500004813075 0.0460499966666102 0.00564999974519014 16 -0.166053786873817 -0.0652547255158424 0.13538646697998 0.223967701196671
-0.0182500004395843 0.0460499966666102 0.00564999974519014 16 -0.157499447464943 -0.139932990074158 0.114167161285877 0.239627748727798
-0.015450000397861 0.0460499966666102 0.00564999974519014 16 -0.126211851835251 -0.212674230337143 0.072503037750721 0.257713884115219
-0.0126500003561378 0.0460499966666102 0.00564999974519014 16 -0.0729101896286011 -0.272377043962479 0.00611289404332638 0.282032817602158
-0.0098500003144145 0.0460499966666102 0.00564999974519014 16 -0.00486764870584011 -0.308694958686829 -0.0753297880291939 0.317790567874908
-0.00705000027269125 0.0460499966666102 0.00564999974519014 16 0.0668124556541443 -0.305299818515778 -0.161106064915657 0.351606369018555
-0.004250000230968 0.0460499966666102 0.00564999974519014 16 0.125657945871353 -0.254518181085587 -0.226745218038559 0.363294392824173
-0.00145000018924474 0.0460499966666102 0.00564999974519014 16 0.161156743764877 -0.158912241458893 -0.262274980545044 0.346428573131561
0.0013499998524785 0.0460499966666102 0.00564999974519014 16 0.166641041636467 -0.0326453521847725 -0.25640007853508 0.307532042264938
0.00414999989420176 0.0460499966666102 0.00564999974519014 16 0.146671861410141 0.101094014942646 -0.219797417521477 0.282919675111771
0.006949999935925 0.0460499966666102 0.00564999974519014 16 0.107333317399025 0.216882184147835 -0.160562962293625 0.290411412715912
0.00974999997764826 0.0460499966666102 0.00564999974519014 16 0.057493407279253 0.293759614229202 -0.0921215713024139 0.313187777996063
0.0125500000193715 0.0460499966666102 0.00564999974519014 16 0.00137671129778028 0.320535153150558 -0.0174496974796057 0.321012705564499
0.0153500000610948 0.0460499966666102 0.00564999974519014 16 -0.0531038418412209 0.301213055849075 0.0529315806925297 0.310404688119888
0.018150000102818 0.0460499966666102 0.00564999974519014 16 -0.100622765719891 0.249011248350143 0.113502986729145 0.291572421789169
0.0209500001445413 0.0460499966666102 0.00564999974519014 16 -0.13296964764595 0.182922720909119 0.154524803161621 0.273896992206573
0.0237500001862645 0.0460499966666102 0.00564999974519014 16 -0.15002404153347 0.115541681647301 0.178606510162354 0.260302484035492
0.0265500002279878 0.0460499966666102 0.00564999974519014 16 -0.152982577681541 0.0512414388358593 0.188068345189095 0.247788324952126
0.029350000269711 0.0460499966666102 0.00564999974519014 16 -0.148636251688004 -0.00808702036738396 0.186788380146027 0.238847300410271
0.0321500003114343 0.0460499966666102 0.00564999974519014 16 -0.142020329833031 -0.0565730668604374 0.181517392396927 0.23731592297554
0.0349500003531575 0.0460499966666102 0.00564999974519014 16 -0.138067230582237 -0.0786728411912918 0.175989016890526 0.237116247415543
-0.0350500006899238 0.043249996624887 0.00564999974519014 16 -0.0421220473945141 0.176961451768875 0.11262971162796 0.213951095938683
-0.0322500006482005 0.043249996624887 0.00564999974519014 16 -0.0558742135763168 0.158310770988464 0.119428277015686 0.206027522683144
-0.0294500006064773 0.043249996624887 0.00564999974519014 16 -0.0851278230547905 0.116014957427979 0.131687432527542 0.195058450102806
-0.026650000564754 0.043249996624887 0.00564999974519014 16 -0.116266183555126 0.059138584882021 0.142011120915413 0.192827269434929
-0.0238500005230308 0.043249996624887 0.00564999974519014 16 -0.140034571290016 -0.00335017149336636 0.144748583436012 0.201427549123764
-0.0210500004813075 0.043249996624887 0.00564999974519014 16 -0.149113029241562 -0.06704331189394 0.137139782309532 0.213393583893776
-0.0182500004395843 0.043249996624887 0.00564999974519014 16 -0.140543863177299 -0.12578096985817 0.114120662212372 0.220447167754173
-0.015450000397861 0.043249996624887 0.00564999974519014 16 -0.11199976503849 -0.178749889135361 0.0718923285603523 0.222854152321815
-0.0126500003561378 0.043249996624887 0.00564999974519014 16 -0.0645068660378456 -0.218243613839149 0.00701523991301656 0.227685362100601
-0.0098500003144145 0.043249996624887 0.00564999974519014 16 -0.00408554123714566 -0.239176765084267 -0.0712913051247597 0.249609023332596
-0.00705000027269125 0.043249996624887 0.00564999974519014 16 0.0591439567506313 -0.230838537216187 -0.152143105864525 0.282722413539886
-0.004250000230968 0.043249996624887 0.00564999974519014 16 0.112176537513733 -0.189532861113548 -0.214486598968506 0.307426065206528
-0.00145000018924474 0.043249996624887 0.00564999974519014 16 0.144580379128456 -0.117745146155357 -0.248614475131035 0.31076768040657
0.0013499998524785 0.043249996624887 0.00564999974519014 16 0.151549100875854 -0.025558415800333 -0.246516063809395 0.290500491857529
0.00414999989420176 0.043249996624887 0.00564999974519014 16 0.13602314889431 0.0721582695841789 -0.218672707676888 0.267445057630539
0.006949999935925 0.043249996624887 0.00564999974519014 16 0.103315927088261 0.158984079957008 -0.169242769479752 0.254151999950409
0.00974999997764826 0.043249996624887 0.00564999974519014 16 0.0591559112071991 0.221056237816811 -0.107905946671963 0.25299996137619
0.0125500000193715 0.043249996624887 0.00564999974519014 16 0.00499829463660717 0.248911440372467 -0.0317192636430264 0.250974088907242
0.0153500000610948 0.043249996624887 0.00564999974519014 16 -0.0520833060145378 0.243264123797417 0.0454164333641529 0.252888828516006
0.018150000102818 0.043249996624887 0.00564999974519014 16 -0.10474044084549 0.210665017366409 0.115786239504814 0.262215107679367
0.0209500001445413 0.043249996624887 0.00564999974519014 16 -0.141016468405724 0.162350013852119 0.163131654262543 0.269916862249374
0.0237500001862645 0.043249996624887 0.00564999974519014 16 -0.158282443881035 0.107938066124916 0.189343169331551 0.269359976053238
0.0265500002279878 0.043249996624887 0.00564999974519014 16 -0.158072084188461 0.0512299239635468 0.196120068430901 0.257049351930618
0.029350000269711 0.043249996624887 0.00564999974519014 16 -0.148962140083313 -0.0024994327686727 0.191037535667419 0.24226288497448
0.0321500003114343 0.043249996624887 0.00564999974519014 16 -0.138399139046669 -0.0467513352632523 0.182054758071899 0.233417958021164
0.0349500003531575 0.043249996624887 0.00564999974519014 16 -0.133091673254967 -0.0665446221828461 0.176013931632042 0.230483144521713
-0.0350500006899238 0.0404499965831637 0.00564999974519014 16 -0.016850259155035 0.130748137831688 0.0856375470757484 0.157203033566475
-0.0322500006482005 0.0404499965831637 0.00564999974519014 16 -0.028766181319952 0.115811884403229 0.0917759910225868 0.150541409850121
-0.0294500006064773 0.0404499965831637 0.00564999974519014 16 -0.0536165237426758 0.0818693488836288 0.103492297232151 0.142435878515244
-0.026650000564754 0.0404499965831637 0.00564999974519014 16 -0.0798160880804062 0.0356462821364403 0.113207295536995 0.143028512597084
-0.0238500005230308 0.0404499965831637 0.00564999974519014 16 -0.098069503903389 -0.0150680486112833 0.114710584282875 0.151668027043343
-0.0210500004813075 0.0404499965831637 0.00564999974519014 16 -0.103631198406219 -0.0657697916030884 0.105534926056862 0.161872521042824
-0.0182500004395843 0.0404499965831637 0.00564999974519014 16 -0.094859391450882 -0.110496409237385 0.0821507126092911 0.167201980948448
-0.015450000397861 0.0404499965831637 0.00564999974519014 16 -0.0716109201312065 -0.148373752832413 0.0441676415503025 0.17056867480278
-0.0126500003561378 0.0404499965831637 0.00564999974519014 16 -0.0361907109618187 -0.173901379108429 -0.00975582003593445 0.17789500951767
-0.0098500003144145 0.0404499965831637 0.00564999974519014 16 0.00796298775821924 -0.184730499982834 -0.0727960914373398 0.198715969920158
-0.00705000027269125 0.0404499965831637 0.00564999974519014 16 0.0522774644196033 -0.17411570250988 -0.135510265827179 0.226742684841156
-0.004250000230968 0.0404499965831637 0.00564999974519014 16 0.0895262807607651 -0.14082133769989 -0.183385387063026 0.24794314801693
-0.00145000018924474 0.0404499965831637 0.00564999974519014 16 0.110375694930553 -0.0875786915421486 -0.206931591033936 0.250346779823303
0.0013499998524785 0.0404499965831637 0.00564999974519014 16 0.113509148359299 -0.0214064922183752 -0.202893972396851 0.233470618724823
0.00414999989420176 0.0404499965831637 0.00564999974519014 16 0.100690178573132 0.047857191413641 -0.17998680472374 0.211716964840889
0.006949999935925 0.0404499965831637 0.00564999974519014 16 0.0768657699227333 0.111188240349293 -0.142033666372299 0.196073293685913
0.00974999997764826 0.0404499965831637 0.00564999974519014 16 0.0446335263550282 0.160301744937897 -0.0954353734850883 0.191824689507484
0.0125500000193715 0.0404499965831637 0.00564999974519014 16 0.00222345860674977 0.188662469387054 -0.0326821580529213 0.191485226154327
0.0153500000610948 0.0404499965831637 0.00564999974519014 16 -0.0464168041944504 0.194368988275528 0.0347288325428963 0.202829763293266
0.018150000102818 0.0404499965831637 0.00564999974519014 16 -0.0946517363190651 0.178603500127792 0.10061950981617 0.225792929530144
0.0209500001445413 0.0404499965831637 0.00564999974519014 16 -0.129010573029518 0.146454215049744 0.14596152305603 0.243715673685074
0.0237500001862645 0.0404499965831637 0.00564999974519014 16 -0.144133672118187 0.104704819619656 0.169613882899284 0.2459806650877
0.0265500002279878 0.0404499965831637 0.00564999974519014 16 -0.140529319643974 0.0566833168268204 0.172047421336174 0.229263618588448
0.029350000269711 0.0404499965831637 0.00564999974519014 16 -0.127288475632668 0.00953089725226164 0.162349551916122 0.206520155072212
0.0321500003114343 0.0404499965831637 0.00564999974519014 16 -0.113438576459885 -0.029815686866641 0.149603009223938 0.190100878477097
0.0349500003531575 0.0404499965831637 0.00564999974519014 16 -0.106913723051548 -0.0474978499114513 0.142593294382095 0.184443593025208
-0.0350500006899238 0.0376499965414405 0.00564999974519014 16 -0.00174288533162326 0.0919406488537788 0.0623212680220604 0.111085832118988
-0.0322500006482005 0.0376499965414405 0.00564999974519014 16 -0.0108521021902561 0.0797897204756737 0.066287100315094 0.104298360645771
-0.0294500006064773 0.0376499965414405 0.00564999974519014 16 -0.0291567984968424 0.0525357387959957 0.0745735988020897 0.0957671329379082
-0.026650000564754 0.0376499965414405 0.00564999974519014 16 -0.0474979691207409 0.0155051676556468 0.0808943510055542 0.0950808227062225
-0.0238500005230308 0.0376499965414405 0.00564999974519014 16 -0.0585370995104313 -0.0248117260634899 0.080090269446373 0.102257832884789
-0.0210500004813075 0.0376499965414405 0.00564999974519014 16 -0.0595114678144455 -0.0644972249865532 0.0695028528571129 0.111947096884251
-0.0182500004395843 0.0376499965414405 0.00564999974519014 16 -0.0505061894655228 -0.0989373996853828 0.047707237303257 0.120894439518452
-0.015450000397861 0.0376499965414405 0.00564999974519014 16 -0.0321072153747082 -0.126587122678757 0.0158560015261173 0.131554499268532
-0.0126500003561378 0.0376499965414405 0.00564999974519014 16 -0.00743100652471185 -0.143646597862244 -0.025566041469574 0.146093085408211
-0.0098500003144145 0.0376499965414405 0.00564999974519014 16 0.0222825240343809 -0.148388683795929 -0.0726336464285851 0.166707396507263
-0.00705000027269125 0.0376499965414405 0.00564999974519014 16 0.0496989861130714 -0.13728803396225 -0.117101065814495 0.187164768576622
-0.004250000230968 0.0376499965414405 0.00564999974519014 16 0.0720380246639252 -0.110213696956635 -0.149990364909172 0.199583679437637