TITLE="DynamicStudio Exported Data"
VARIABLES= "X (m)[m]" "Y (m)[m]" "Z (m)[m]" "Status[-]" "U[-]" "V[-]" "W[-]" "Length[-]"
ZONE T="DynamicStudio Data" F=POINT
-0.0350500006899238 0.0600499968752265 0.00564999974519014 16 -0.322384297847748 0.241260409355164 0.419414073228836 0.581417560577393
-0.0322500006482005 0.0600499968752265 0.00564999974519014 16 -0.28596755862236 0.267080634832382 0.376998126506805 0.543357253074646
-0.0294500006064773 0.0600499968752265 0.00564999974519014 16 -0.197966635227203 0.313282936811447 0.271868169307709 0.459618628025055
-0.026650000564754 0.0600499968752265 0.00564999974519014 16 -0.0880892425775528 0.340166360139847 0.137889012694359 0.377473503351212
-0.0238500005230308 0.0600499968752265 0.00564999974519014 16 0.0218468811362982 0.325587064027786 0.00365376425907016 0.326339662075043
-0.0210500004813075 0.0600499968752265 0.00564999974519014 16 0.107339143753052 0.271682411432266 -0.0992741584777832 0.308526128530502
-0.0182500004395843 0.0600499968752265 0.00564999974519014 16 0.164772212505341 0.199165686964989 -0.170910313725471 0.309882551431656
-0.015450000397861 0.0600499968752265 0.00564999974519014 16 0.192078039050102 0.127624332904816 -0.211606919765472 0.312984704971313
-0.0126500003561378 0.0600499968752265 0.00564999974519014 16 0.201175630092621 0.064594067633152 -0.237249776721001 0.317697137594223
-0.0098500003144145 0.0600499968752265 0.00564999974519014 16 0.200218200683594 0.00680194096639752 -0.249439939856529 0.319927930831909
-0.00705000027269125 0.0600499968752265 0.00564999974519014 16 0.193002298474312 -0.0595698431134224 -0.252589046955109 0.323418736457825
-0.004250000230968 0.0600499968752265 0.00564999974519014 16 0.173467040061951 -0.137750595808029 -0.236457303166389 0.324003249406815
-0.00145000018924474 0.0600499968752265 0.00564999974519014 16 0.129474088549614 -0.224252432584763 -0.191277891397476 0.321931540966034
0.0013499998524785 0.0600499968752265 0.00564999974519014 16 0.0550745613873005 -0.29585525393486 -0.106748595833778 0.319309860467911
0.00414999989420176 0.0600499968752265 0.00564999974519014 16 -0.0483068265020847 -0.329173982143402 0.0156990345567465 0.333069831132889
0.006949999935925 0.0600499968752265 0.00564999974519014 16 -0.159656599164009 -0.30388280749321 0.154518336057663 0.376445084810257
0.00974999997764826 0.0600499968752265 0.00564999974519014 16 -0.259421765804291 -0.214669317007065 0.284607112407684 0.440889745950699
0.0125500000193715 0.0600499968752265 0.00564999974519014 16 -0.316744029521942 -0.0777009353041649 0.366134703159332 0.49032524228096
0.0153500000610948 0.0600499968752265 0.00564999974519014 16 -0.323410242795944 0.0786447077989578 0.385653525590897 0.509419083595276
0.018150000102818 0.0600499968752265 0.00564999974519014 16 -0.272370368242264 0.217751353979111 0.335737437009811 0.484067022800446
0.0209500001445413 0.0600499968752265 0.00564999974519014 16 -0.182960957288742 0.311918765306473 0.238082930445671 0.432956695556641
0.0237500001862645 0.0600499968752265 0.00564999974519014 16 -0.0734540224075317 0.348603695631027 0.118396364152431 0.37541675567627
0.0265500002279878 0.0600499968752265 0.00564999974519014 16 0.0312315989285707 0.329048931598663 0.000518966640811414 0.330528199672699
0.029350000269711 0.0600499968752265 0.00564999974519014 16 0.115509264171124 0.274020791053772 -0.0947650596499443 0.312106072902679
0.0321500003114343 0.0600499968752265 0.00564999974519014 16 0.169964924454689 0.213440954685211 -0.158661603927612 0.315624177455902
0.0349500003531575 0.0600499968752265 0.00564999974519014 16 0.190365299582481 0.183501571416855 -0.183751076459885 0.321987956762314
-0.0350500006899238 0.0572499968335032 0.00564999974519014 16 -0.272665351629257 0.261392861604691 0.36557936668396 0.525662362575531
-0.0322500006482005 0.0572499968335032 0.00564999974519014 16 -0.241075396537781 0.289744853973389 0.327689707279205 0.499449670314789
-0.0294500006064773 0.0572499968335032 0.00564999974519014 16 -0.166924521327019 0.339157998561859 0.236022263765335 0.445643842220306
-0.026650000564754 0.0572499968335032 0.00564999974519014 16 -0.0745240598917007 0.366608649492264 0.119178056716919 0.392631083726883
-0.0238500005230308 0.0572499968335032 0.00564999974519014 16 0.0177235789597034 0.349592983722687 0.00214693951420486 0.350048542022705
-0.0210500004813075 0.0572499968335032 0.00564999974519014 16 0.0897962525486946 0.289872705936432 -0.0881350338459015 0.316002130508423
-0.0182500004395843 0.0572499968335032 0.00564999974519014 16 0.138333097100258 0.210806339979172 -0.151028707623482 0.293913304805756
-0.015450000397861 0.0572499968335032 0.00564999974519014 16 0.161481127142906 0.133340001106262 -0.187027290463448 0.28077557682991
-0.0126500003561378 0.0572499968335032 0.00564999974519014 16 0.168531864881516 0.0667247399687767 -0.208171755075455 0.276026546955109
-0.0098500003144145 0.0572499968335032 0.00564999974519014 16 0.166919261217117 0.00716931046918035 -0.216694295406342 0.273623555898666
-0.00705000027269125 0.0572499968335032 0.00564999974519014 16 0.160949259996414 -0.0607666745781898 -0.218230396509171 0.277888029813766
-0.004250000230968 0.0572499968335032 0.00564999974519014 16 0.146076142787933 -0.142738729715347 -0.205610990524292 0.289807617664337
-0.00145000018924474 0.0572499968335032 0.00564999974519014 16 0.111240990459919 -0.235841825604439 -0.169851750135422 0.311200141906738
0.0013499998524785 0.0572499968335032 0.00564999974519014 16 0.0499644391238689 -0.315799415111542 -0.0996057838201523 0.334883600473404
0.00414999989420176 0.0572499968335032 0.00564999974519014 16 -0.0371089540421963 -0.355269610881805 0.00525500392541289 0.357241094112396
0.006949999935925 0.0572499968335032 0.00564999974519014 16 -0.132511898875237 -0.33081904053688 0.127108290791512 0.378361135721207
0.00974999997764826 0.0572499968335032 0.00564999974519014 16 -0.218894138932228 -0.235431402921677 0.243089720606804 0.403032511472702
0.0125500000193715 0.0572499968335032 0.00564999974519014 16 -0.270350366830826 -0.0871081054210663 0.318824499845505 0.42699670791626
0.0153500000610948 0.0572499968335032 0.00564999974519014 16 -0.278601467609406 0.0826299339532852 0.340129941701889 0.44736436009407
0.018150000102818 0.0572499968335032 0.00564999974519014 16 -0.237680301070213 0.233283996582031 0.299781203269958 0.448087185621262
0.0209500001445413 0.0572499968335032 0.00564999974519014 16 -0.162986546754837 0.335061848163605 0.216238081455231 0.430801540613174
0.0237500001862645 0.0572499968335032 0.00564999974519014 16 -0.0708296671509743 0.373783499002457 0.111910499632359 0.396553814411163
0.0265500002279878 0.0572499968335032 0.00564999974519014 16 0.0180057492107153 0.351457267999649 0.00953656062483788 0.352047383785248
0.029350000269711 0.0572499968335032 0.00564999974519014 16 0.0897129327058792 0.29106992483139 -0.0742212757468224 0.313494652509689
0.0321500003114343 0.0572499968335032 0.00564999974519014 16 0.136684760451317 0.224911779165268 -0.130412250757217 0.293726712465286
0.0349500003531575 0.0572499968335032 0.00564999974519014 16 0.154763370752335 0.192265123128891 -0.152721345424652 0.290243685245514
-0.0350500006899238 0.05444999679178 0.00564999974519014 16 -0.142251953482628 0.294979840517044 0.224578931927681 0.397094964981079
-0.0322500006482005 0.05444999679178 0.00564999974519014 16 -0.126537561416626 0.326680034399033 0.202366426587105 0.404578506946564
-0.0294500006064773 0.05444999679178 0.00564999974519014 16 -0.0879081562161446 0.381675064563751 0.146189257502556 0.418061017990112
-0.026650000564754 0.05444999679178 0.00564999974519014 16 -0.0398369692265987 0.410770386457443 0.0736489966511726 0.419217705726624
-0.0238500005230308 0.05444999679178 0.00564999974519014 16 0.0094591211527586 0.389893472194672 -0.00055364629952237 0.390008598566055
-0.0210500004813075 0.05444999679178 0.00564999974519014 16 0.0486502684652805 0.320252984762192 -0.0591840110719204 0.329289495944977
-0.0182500004395843 0.05444999679178 0.00564999974519014 16 0.076240099966526 0.228978022933006 -0.101723283529282 0.261899054050446
-0.015450000397861 0.05444999679178 0.00564999974519014 16 0.0888873115181923 0.140320420265198 -0.125974908471107 0.208471700549126
-0.0126500003561378 0.05444999679178 0.00564999974519014 16 0.0911762863397598 0.0661318972706795 -0.137193948030472 0.177506968379021
-0.0098500003144145 0.05444999679178 0.00564999974519014 16 0.0880001187324524 0.00284990598447621 -0.137590080499649 0.163349851965904
-0.00705000027269125 0.05444999679178 0.00564999974519014 16 0.0845880657434464 -0.0675753578543663 -0.135463804006577 0.173412844538689
-0.004250000230968 0.05444999679178 0.00564999974519014 16 0.0797778367996216 -0.154074102640152 -0.129975497722626 0.216787829995155
-0.00145000018924474 0.05444999679178 0.00564999974519014 16 0.065513513982296 -0.255460530519485 -0.114593975245953 0.287548065185547
0.0013499998524785 0.05444999679178 0.00564999974519014 16 0.0346365235745907 -0.346151024103165 -0.077231802046299 0.356349527835846
0.00414999989420176 0.05444999679178 0.00564999974519014 16 -0.0148268481716514 -0.394047975540161 -0.013722269795835 0.394565522670746
0.006949999935925 0.05444999679178 0.00564999974519014 16 -0.0723786056041718 -0.370974451303482 0.0662283897399902 0.383727639913559
0.00974999997764826 0.05444999679178 0.00564999974519014 16 -0.126797154545784 -0.267131984233856 0.146713256835938 0.330093622207642
0.0125500000193715 0.05444999679178 0.00564999974519014 16 -0.160991877317429 -0.102425679564476 0.20294052362442 0.278557479381561
0.0153500000610948 0.05444999679178 0.00564999974519014 16 -0.170062720775604 0.0871063247323036 0.224035918712616 0.294450223445892
0.018150000102818 0.05444999679178 0.00564999974519014 16 -0.149852469563484 0.255194365978241 0.203902751207352 0.359383165836334
0.0209500001445413 0.05444999679178 0.00564999974519014 16 -0.110184960067272 0.369121015071869 0.155795767903328 0.415527820587158
0.0237500001862645 0.05444999679178 0.00564999974519014 16 -0.0603157244622707 0.412413269281387 0.0925790593028069 0.426958501338959
0.0265500002279878 0.05444999679178 0.00564999974519014 16 -0.0113270729780197 0.387428998947144 0.0296688042581081 0.388728410005569
0.029350000269711 0.05444999679178 0.00564999974519014 16 0.0294903498142958 0.319674551486969 -0.0250089932233095 0.322004586458206
0.0321500003114343 0.05444999679178 0.00564999974519014 16 0.0578813068568707 0.244898974895477 -0.0628680139780045 0.259380310773849
0.0349500003531575 0.05444999679178 0.00564999974519014 16 0.0691223740577698 0.208059415221214 -0.079179011285305 0.233100712299347
-0.0350500006899238 0.0516499967500567 0.00564999974519014 16 0.0190683584660292 0.304288566112518 0.0496663004159927 0.308904320001602
-0.0322500006482005 0.0516499967500567 0.00564999974519014 16 0.0180909913033247 0.336687445640564 0.0452996417880058 0.340202569961548
-0.0294500006064773 0.0516499967500567 0.00564999974519014 16 0.0153607437387109 0.392600566148758 0.0341227166354656 0.394379913806915
-0.026650000564754 0.0516499967500567 0.00564999974519014 16 0.0102852275595069 0.422264665365219 0.0181629899889231 0.422780245542526
-0.0238500005230308 0.0516499967500567 0.00564999974519014 16 0.006214230787009 0.400820761919022 -0.00047795960563235 0.400869220495224
-0.0210500004813075 0.0516499967500567 0.00564999974519014 16 0.00210670777596533 0.329210311174393 -0.0163884181529284 0.329624712467194
-0.0182500004395843 0.0516499967500567 0.00564999974519014 16 0.000414393492974341 0.233659863471985 -0.0301725249737501 0.235600262880325
-0.015450000397861 0.0516499967500567 0.00564999974519014 16 -0.00277905911207199 0.139493063092232 -0.0367969870567322 0.144291564822197
-0.0126500003561378 0.0516499967500567 0.00564999974519014 16 -0.00714863184839487 0.0595619529485703 -0.0353135764598846 0.0696116238832474
-0.0098500003144145 0.0516499967500567 0.00564999974519014 16 -0.0110719278454781 -0.00723651656880975 -0.0281563494354486 0.0311084352433681
-0.00705000027269125 0.0516499967500567 0.00564999974519014 16 -0.00933999475091696 -0.078064426779747 -0.0253172423690557 0.0825969353318214
-0.004250000230968 0.0516499967500567 0.00564999974519014 16 -0.000433192064519972 -0.163204282522202 -0.0327282175421715 0.166454076766968
-0.00145000018924474 0.0516499967500567 0.00564999974519014 16 0.0104806376621127 -0.263120651245117 -0.0449752174317837 0.267142474651337
0.0013499998524785 0.0516499967500567 0.00564999974519014 16 0.0164040494710207 -0.353610664606094 -0.0502914302051067 0.357545584440231
0.00414999989420176 0.0516499967500567 0.00564999974519014 16 0.0130968457087874 -0.401751399040222 -0.0399023145437241 0.403940469026566
0.006949999935925 0.0516499967500567 0.00564999974519014 16 0.00361859961412847 -0.377681732177734 -0.0153777860105038 0.378012001514435
0.00974999997764826 0.0516499967500567 0.00564999974519014 16 -0.00896276626735926 -0.272274136543274 0.0164756681770086 0.272919356822968
0.0125500000193715 0.0516499967500567 0.00564999974519014 16 -0.0187549516558647 -0.105185188353062 0.043678093701601 0.115427240729332
0.0153500000610948 0.0516499967500567 0.00564999974519014 16 -0.0265233963727951 0.0867947190999985 0.0611822754144669 0.109453573822975
0.018150000102818 0.0516499967500567 0.00564999974519014 16 -0.030304316431284 0.258158147335052 0.0648681074380875 0.267902702093124
0.0209500001445413 0.0516499967500567 0.00564999974519014 16 -0.0340692922472954 0.376023054122925 0.0618187487125397 0.382590651512146
0.0237500001862645 0.0516499967500567 0.00564999974519014 16 -0.0374061055481434 0.42223933339119 0.053900022059679 0.427306085824966
0.0265500002279878 0.0516499967500567 0.00564999974519014 16 -0.0404499098658562 0.398952275514603 0.0465126596391201 0.403686195611954
0.029350000269711 0.0516499967500567 0.00564999974519014 16 -0.0408796742558479 0.331490457057953 0.0361040756106377 0.335947275161743
0.0321500003114343 0.0516499967500567 0.00564999974519014 16 -0.038607943803072 0.256668865680695 0.0274380929768085 0.261002540588379
0.0349500003531575 0.0516499967500567 0.00564999974519014 16 -0.0366490744054317 0.219831183552742 0.0219441875815392 0.223942965269089
-0.0350500006899238 0.0488499967083335 0.00564999974519014 16 0.160690203309059 0.278993487358093 -0.109876655042171 0.340193450450897
-0.0322500006482005 0.0488499967083335 0.00564999974519014 16 0.145250096917152 0.308714389801025 -0.0975906550884247 0.354860693216324
-0.0294500006064773 0.0488499967083335 0.00564999974519014 16 0.108438700437546 0.360012412071228 -0.0685565546154976 0.382188320159912
-0.026650000564754 0.0488499967083335 0.00564999974519014 16 0.0595289766788483 0.388199329376221 -0.0342127867043018 0.394224494695663
-0.0238500005230308 0.0488499967083335 0.00564999974519014 16 0.0112401386722922 0.369117647409439 -0.00323863723315299 0.369302958250046
-0.0210500004813075 0.0488499967083335 0.00564999974519014 16 -0.0296226311475039 0.304152458906174 0.0199536848813295 0.306242346763611
-0.0182500004395843 0.0488499967083335 0.00564999974519014 16 -0.0579723827540874 0.21473753452301 0.0342238135635853 0.225042834877968
-0.015450000397861 0.0488499967083335 0.00564999974519014 16 -0.0773184224963188 0.124234333634377 0.0462426990270615 0.1534623503685
-0.0126500003561378 0.0488499967083335 0.00564999974519014 16 -0.0894915014505386 0.0444444864988327 0.0600696131587029 0.116586446762085
-0.0098500003144145 0.0488499967083335 0.00564999974519014 16 -0.0944343581795692 -0.0225994512438774 0.0724576115608215 0.121155641973019
-0.00705000027269125 0.0488499967083335 0.00564999974519014 16 -0.0878123566508293 -0.0896963775157928 0.0737433880567551 0.145583435893059
-0.004250000230968 0.0488499967083335 0.00564999974519014 16 -0.0666242688894272 -0.165165573358536 0.0535160154104233 0.185963496565819
-0.00145000018924474 0.0488499967083335 0.00564999974519014 16 -0.0345576554536819 -0.250125259160995 0.0165441576391459 0.253042668104172
0.0013499998524785 0.0488499967083335 0.00564999974519014 16 0.00160096830222756 -0.324926942586899 -0.026686554774642 0.326024919748306
0.00414999989420176 0.0488499967083335 0.00564999974519014 16 0.0355391427874565 -0.362699300050735 -0.0631898939609528 0.369874000549316
0.006949999935925 0.0488499967083335 0.00564999974519014 16 0.0653397291898727 -0.337425261735916 -0.0878549367189407 0.354744404554367
0.00974999997764826 0.0488499967083335 0.00564999974519014 16 0.0882436186075211 -0.242984756827354 -0.100668117403984 0.277421325445175
0.0125500000193715 0.0488499967083335 0.00564999974519014 16 0.10175197571516 -0.0949155017733574 -0.103444941341877 0.173387631773949
0.0153500000610948 0.0488499967083335 0.00564999974519014 16 0.099032536149025 0.0746990144252777 -0.0947053283452988 0.15606564283371
0.018150000102818 0.0488499967083335 0.00564999974519014 16 0.0785444751381874 0.228555947542191 -0.0736290290951729 0.252642601728439
0.0209500001445413 0.0488499967083335 0.00564999974519014 16 0.0393490716814995 0.337902456521988 -0.0371320061385632 0.342206388711929
0.0237500001862645 0.0488499967083335 0.00564999974519014 16 -0.00980425253510475 0.385329842567444 0.0069531318731606 0.38551726937294
0.0265500002279878 0.0488499967083335 0.00564999974519014 16 -0.0592585578560829 0.370991617441177 0.0523225590586662 0.379320472478867
0.029350000269711 0.0488499967083335 0.00564999974519014 16 -0.0975009053945541 0.315062552690506 0.086159273982048 0.340872794389725
0.0321500003114343 0.0488499967083335 0.00564999974519014 16 -0.120127320289612 0.250990480184555 0.106881372630596 0.298077881336212
0.0349500003531575 0.0488499967083335 0.00564999974519014 16 -0.127557203173637 0.218705579638481 0.113055855035782 0.27728071808815
-0.0350500006899238 0.0460499966666102 0.00564999974519014 16 0.222911447286606 0.230091422796249 -0.192065685987473 0.373524844646454
-0.0322500006482005 0.0460499966666102 0.00564999974519014 16 0.202680945396423 0.25324559211731 -0.172044828534126 0.367167979478836
-0.0294500006064773 0.0460499966666102 0.00564999974519014 16 0.154481142759323 0.293268382549286 -0.123852349817753 0.353850483894348
-0.026650000564754 0.0460499966666102 0.00564999974519014 16 0.0899094715714455 0.315993636846542 -0.0648510307073593 0.334875136613846
-0.0238500005230308 0.0460499966666102 0.00564999974519014 16 0.0238882135599852 0.301427125930786 -0.00775922741740942 0.30247175693512
-0.0210500004813075 0.0460499966666102 0.00564999974519014 16 -0.0341269411146641 0.250535130500793 0.0378680303692818 0.255668699741364
-0.0182500004395843 0.0460499966666102 0.00564999974519014 16 -0.0776793509721756 0.177581757307053 0.0710590034723282 0.206443071365356
-0.015450000397861 0.0460499966666102 0.00564999974519014 16 -0.107911981642246 0.100183479487896 0.0969991236925125 0.176325142383575
-0.0126500003561378 0.0460499966666102 0.00564999974519014 16 -0.126179561018944 0.0275350268930197 0.120038047432899 0.17631958425045
-0.0098500003144145 0.0460499966666102 0.00564999974519014 16 -0.131686642765999 -0.0355311892926693 0.134151175618172 0.191312238574028
-0.00705000027269125 0.0460499966666102 0.00564999974519014 16 -0.121346965432167 -0.0953112840652466 0.130301341414452 0.201959803700447
-0.004250000230968 0.0460499966666102 0.00564999974519014 16 -0.0926509648561478 -0.155787527561188 0.0979333966970444 0.20602160692215
-0.00145000018924474 0.0460499966666102 0.00564999974519014 16 -0.0498019903898239 -0.218242213129997 0.0437762401998043 0.228092655539513
0.0013499998524785 0.0460499966666102 0.00564999974519014 16 0.000287949776975438 -0.269051432609558 -0.02118412964046 0.269884288311005
0.00414999989420176 0.0460499966666102 0.00564999974519014 16 0.0506865195930004 -0.290492236614227 -0.0827043801546097 0.306259483098984
0.006949999935925 0.0460499966666102 0.00564999974519014 16 0.098005011677742 -0.264444053173065 -0.133808702230453 0.312154471874237
0.00974999997764826 0.0460499966666102 0.00564999974519014 16 0.137315183877945 -0.189512625336647 -0.171278059482574 0.290011495351791
0.0125500000193715 0.0460499966666102 0.00564999974519014 16 0.162898987531662 -0.0762254595756531 -0.191982924938202 0.263066232204437
0.0153500000610948 0.0460499966666102 0.00564999974519014 16 0.164400786161423 0.0529297664761543 -0.190263345837593 0.256961703300476
0.018150000102818 0.0460499966666102 0.00564999974519014 16 0.137825191020966 0.173931077122688 -0.161795169115067 0.27463698387146
0.0209500001445413 0.0460499966666102 0.00564999974519014 16 0.0828624218702316 0.265038728713989 -0.105620838701725 0.297098428010941
0.0237500001862645 0.0460499966666102 0.00564999974519014 16 0.0113758705556393 0.311082452535629 -0.0322648547589779 0.312958002090454
0.0265500002279878 0.0460499966666102 0.00564999974519014 16 -0.0622467882931232 0.309709072113037 0.0447893925011158 0.319061845541
0.029350000269711 0.0460499966666102 0.00564999974519014 16 -0.122274331748486 0.273776233196259 0.109294377267361 0.319139003753662
0.0321500003114343 0.0460499966666102 0.00564999974519014 16 -0.160623535513878 0.229318186640739 0.152286887168884 0.318713128566742
0.0349500003531575 0.0460499966666102 0.00564999974519014 16 -0.174819901585579 0.205961391329765 0.169015944004059 0.318666726350784
-0.0350500006899238 0.043249996624887 0.00564999974519014 16 0.209960773587227 0.18427549302578 -0.202214330434799 0.344864636659622
-0.0322500006482005 0.043249996624887 0.00564999974519014 16 0.191893056035042 0.200292259454727 -0.181938216090202 0.331724971532822
-0.0294500006064773 0.043249996624887 0.00564999974519014 16 0.150030970573425 0.227914020419121 -0.133907452225685 0.303949505090714
-0.026650000564754 0.043249996624887 0.00564999974519014 16 0.0931162163615227 0.242600113153458 -0.0735541135072708 0.270066022872925
-0.0238500005230308 0.043249996624887 0.00564999974519014 16 0.0337280370295048 0.230220168828964 -0.0134470388293266 0.23306593298912
-0.0210500004813075 0.043249996624887 0.00564999974519014 16 -0.0200592316687107 0.191238686442375 0.0354457497596741 0.195527523756027
-0.0182500004395843 0.043249996624887 0.00564999974519014 16 -0.0630991458892822 0.134697631001472 0.073762059211731 0.166029497981071
-0.015450000397861 0.043249996624887 0.00564999974519014 16 -0.0948081314563751 0.0723053365945816 0.103665642440319 0.157997488975525
-0.0126500003561378 0.043249996624887 0.00564999974519014 16 -0.115055695176125 0.0106909666210413 0.129373267292976 0.173463404178619
-0.0098500003144145 0.043249996624887 0.00564999974519014 16 -0.121191628277302 -0.0444153510034084 0.142267659306526 0.192094311118126
-0.00705000027269125 0.043249996624887 0.00564999974519014 16 -0.11077468842268 -0.0945762991905212 0.135433495044708 0.198891788721085
-0.004250000230968 0.043249996624887 0.00564999974519014 16 -0.0825279355049133 -0.14006844162941 0.10004798322916 0.190891668200493
-0.00145000018924474 0.043249996624887 0.00564999974519014 16 -0.0408244021236897 -0.181529387831688 0.0431916639208794 0.191010653972626
0.0013499998524785 0.043249996624887 0.00564999974519014 16 0.00694984430447221 -0.210909947752953 -0.0241713114082813 0.212404236197472
0.00414999989420176 0.043249996624887 0.00564999974519014 16 0.0545801818370819 -0.218785390257835 -0.088314950466156 0.242168486118317
0.006949999935925 0.043249996624887 0.00564999974519014 16 0.0988617017865181 -0.195071741938591 -0.142649278044701 0.261104255914688
0.00974999997764826 0.043249996624887 0.00564999974519014 16 0.136376053094864 -0.141097992658615 -0.183756664395332 0.268837451934814
0.0125500000193715 0.043249996624887 0.00564999974519014 16 0.162345841526985 -0.0630018264055252 -0.208872303366661 0.271943092346191
0.0153500000610948 0.043249996624887 0.00564999974519014 16 0.166147902607918 0.0258249100297689 -0.210789695382118 0.269637435674667
0.018150000102818 0.043249996624887 0.00564999974519014 16 0.14224611222744 0.113138131797314 -0.183281108736992 0.258120447397232
0.0209500001445413 0.043249996624887 0.00564999974519014 16 0.0891132578253746 0.184821844100952 -0.125702068209648 0.240626871585846
0.0237500001862645 0.043249996624887 0.00564999974519014 16 0.0177378840744495 0.228869423270226 -0.0473199896514416 0.234382227063179
0.0265500002279878 0.043249996624887 0.00564999974519014 16 -0.0571428164839745 0.240532234311104 0.0358917489647865 0.249818488955498
0.029350000269711 0.043249996624887 0.00564999974519014 16 -0.12028855830431 0.225212946534157 0.109772369265556 0.277921169996262
0.0321500003114343 0.043249996624887 0.00564999974519014 16 -0.162033304572105 0.200686305761337 0.161009207367897 0.304062068462372
0.0349500003531575 0.043249996624887 0.00564999974519014 16 -0.178542584180832 0.186576545238495 0.182787448167801 0.316385060548782
-0.0350500006899238 0.0404499965831637 0.00564999974519014 16 0.151311263442039 0.153812825679779 -0.16219799220562 0.269929021596909
-0.0322500006482005 0.0404499965831637 0.00564999974519014 16 0.139559522271156 0.163454592227936 -0.146912515163422 0.260341227054596
-0.0294500006064773 0.0404499965831637 0.00564999974519014 16 0.112879507243633 0.179862767457962 -0.111121647059917 0.239667296409607
-0.026650000564754 0.0404499965831637 0.00564999974519014 16 0.0750277936458588 0.186404645442963 -0.0638943910598755 0.21085150539875
-0.0238500005230308 0.0404499965831637 0.00564999974519014 16 0.0340649150311947 0.174396157264709 -0.0151603547856212 0.178337514400482
-0.0210500004813075 0.0404499965831637 0.00564999974519014 16 -0.00478105479851365 0.143318101763725 0.0254903063178062 0.145645782351494
-0.0182500004395843 0.0404499965831637 0.00564999974519014 16 -0.0378099232912064 0.0989698842167854 0.0589467659592628 0.121240869164467
-0.015450000397861 0.0404499965831637 0.00564999974519014 16 -0.0632840767502785 0.0485177300870419 0.0849699899554253 0.116527862846851
-0.0126500003561378 0.0404499965831637 0.00564999974519014 16 -0.080328956246376 -0.00270012929104269 0.108202882111073 0.134788334369659
-0.0098500003144145 0.0404499965831637 0.00564999974519014 16 -0.0853952467441559 -0.0491206422448158 0.118410117924213 0.154032930731773
-0.00705000027269125 0.0404499965831637 0.00564999974519014 16 -0.0764657780528069 -0.0894840657711029 0.110214538872242 0.161250293254852
-0.004250000230968 0.0404499965831637 0.00564999974519014 16 -0.0533876642584801 -0.122644990682602 0.0770917609333992 0.154386445879936
-0.00145000018924474 0.0404499965831637 0.00564999974519014 16 -0.0199591647833586 -0.148760810494423 0.0272060744464397 0.152539551258087
0.0013499998524785 0.0404499965831637 0.00564999974519014 16 0.0164959616959095 -0.163919150829315 -0.0287883821874857 0.167243465781212
0.00414999989420176 0.0404499965831637 0.00564999974519014 16 0.052063349634409 -0.163638174533844 -0.0807562097907066 0.189761981368065
0.006949999935925 0.0404499965831637 0.00564999974519014 16 0.0839855894446373 -0.143816113471985 -0.124673165380955 0.208038583397865
0.00974999997764826 0.0404499965831637 0.00564999974519014 16 0.111471831798553 -0.107290595769882 -0.158495172858238 0.221490323543549
0.0125500000193715 0.0404499965831637 0.00564999974519014 16 0.131109476089478 -0.0573898516595364 -0.179842293262482 0.229840248823166
0.0153500000610948 0.0404499965831637 0.00564999974519014 16 0.134400710463524 -0.000295262434519827 -0.181318178772926 0.225698739290237
0.018150000102818 0.0404499965831637 0.00564999974519014 16 0.115801647305489 0.0602646209299564 -0.157159581780434 0.204306095838547
0.0209500001445413 0.0404499965831637 0.00564999974519014 16 0.0728504955768585 0.116100013256073 -0.10716175287962 0.17398290336132
0.0237500001862645 0.0404499965831637 0.00564999974519014 16 0.0139078479260206 0.157860293984413 -0.0385570675134659 0.163094907999039
0.0265500002279878 0.0404499965831637 0.00564999974519014 16 -0.0490386448800564 0.179127007722855 0.0346813574433327 0.188928738236427
0.029350000269711 0.0404499965831637 0.00564999974519014 16 -0.103845827281475 0.179928749799728 0.102358713746071 0.231593653559685
0.0321500003114343 0.0404499965831637 0.00564999974519014 16 -0.141316801309586 0.171066671609879 0.150897562503815 0.268336206674576
0.0349500003531575 0.0404499965831637 0.00564999974519014 16 -0.157015770673752 0.164343595504761 0.17262265086174 0.285414338111877
-0.0350500006899238 0.0376499965414405 0.00564999974519014 16 0.0875595957040787 0.139299944043159 -0.112219497561455 0.199159160256386
-0.0322500006482005 0.0376499965414405 0.00564999974519014 16 0.0810146927833557 0.144796654582024 -0.102089315652847 0.194811910390854
-0.0294500006064773 0.0376499965414405 0.00564999974519014 16 0.066826269030571 0.153243899345398 -0.0788414403796196 0.184838905930519
-0.026650000564754 0.0376499965414405 0.00564999974519014 16 0.0453523471951485 0.152950242161751 -0.045554019510746 0.165908947587013
-0.0238500005230308 0.0376499965414405 0.00564999974519014 16 0.0216545294970274 0.139176055788994 -0.0103448685258627 0.14122998714447
-0.0210500004813075 0.0376499965414405 0.00564999974519014 16 -0.00141009909566492 0.111256375908852 0.0193041823804379 0.112927503883839
-0.0182500004395843 0.0376499965414405 0.00564999974519014 16 -0.0214110258966684 0.073792964220047 0.0430875867605209 0.0880929827690125
-0.015450000397861 0.0376499965414405 0.00564999974519014 16 -0.0368741862475872 0.0310349781066179 0.0603599287569523 0.0772411599755287
-0.0126500003561378 0.0376499965414405 0.00564999974519014 16 -0.0472677573561668 -0.0120475888252258 0.0758979097008705 0.0902212783694267
-0.0098500003144145 0.0376499965414405 0.00564999974519014 16 -0.0494499765336514 -0.050895519554615 0.0816141068935394 0.10815043002367
-0.00705000027269125 0.0376499965414405 0.00564999974519014 16 -0.0423577651381493 -0.0830520689487457 0.0747627466917038 0.119504369795322
-0.004250000230968 0.0376499965414405 0.00564999974519014 16 -0.0262442547827959 -0.10757252573967 0.050374161452055 0.121647708117962