TITLE="DynamicStudio Exported Data"
VARIABLES= "X (m)[m]" "Y (m)[m]" "Z (m)[m]" "Status[-]" "U[-]" "V[-]" "W[-]" "Length[-]"
ZONE T="DynamicStudio Data" F=POINT
-0.0350500006899238 0.0600499968752265 0.00564999974519014 16 0.212977319955826 -0.0936139672994614 -0.2157371789217 0.317278176546097
-0.0322500006482005 0.0600499968752265 0.00564999974519014 16 0.208951607346535 -0.107418693602085 -0.212853282690048 0.317026913166046
-0.0294500006064773 0.0600499968752265 0.00564999974519014 16 0.187335073947906 -0.142772763967514 -0.186698630452156 0.30055758357048
-0.026650000564754 0.0600499968752265 0.00564999974519014 16 0.151297345757484 -0.193065479397774 -0.144266352057457 0.284566253423691
-0.0238500005230308 0.0600499968752265 0.00564999974519014 16 0.088982529938221 -0.250958502292633 -0.071525901556015 0.275706380605698
-0.0210500004813075 0.0600499968752265 0.00564999974519014 16 0.0106363324448466 -0.301058381795883 0.0124423764646053 0.30150306224823
-0.0182500004395843 0.0600499968752265 0.00564999974519014 16 -0.0862370878458023 -0.318981975317001 0.11534321308136 0.349986284971237
-0.015450000397861 0.0600499968752265 0.00564999974519014 16 -0.180511742830276 -0.287727892398834 0.216741755604744 0.402925342321396
-0.0126500003561378 0.0600499968752265 0.00564999974519014 16 -0.260034710168839 -0.198985859751701 0.308730512857437 0.450031071901321
-0.0098500003144145 0.0600499968752265 0.00564999974519014 16 -0.302323877811432 -0.0689350739121437 0.365388065576553 0.479228764772415
-0.00705000027269125 0.0600499968752265 0.00564999974519014 16 -0.295130044221878 0.0805694162845612 0.366234570741653 0.477201163768768
-0.004250000230968 0.0600499968752265 0.00564999974519014 16 -0.238649874925613 0.215834096074104 0.309634685516357 0.446555435657501
-0.00145000018924474 0.0600499968752265 0.00564999974519014 16 -0.140526726841927 0.309977561235428 0.198775514960289 0.394139021635056
0.0013499998524785 0.0600499968752265 0.00564999974519014 16 -0.0284289922565222 0.340962409973145 0.0706853047013283 0.349370837211609
0.00414999989420176 0.0600499968752265 0.00564999974519014 16 0.0786326080560684 0.310945957899094 -0.0530887357890606 0.325098276138306
0.006949999935925 0.0600499968752265 0.00564999974519014 16 0.154395461082458 0.235075622797012 -0.138004437088966 0.313279002904892
0.00974999997764826 0.0600499968752265 0.00564999974519014 16 0.198820278048515 0.14178004860878 -0.186148062348366 0.307054042816162
0.0125500000193715 0.0600499968752265 0.00564999974519014 16 0.209955155849457 0.0501429513096809 -0.199763089418411 0.294110149145126
0.0153500000610948 0.0600499968752265 0.00564999974519014 16 0.205005407333374 -0.0276642795652151 -0.201756805181503 0.288960784673691
0.018150000102818 0.0600499968752265 0.00564999974519014 16 0.188746124505997 -0.0952499955892563 -0.199537605047226 0.290711045265198
0.0209500001445413 0.0600499968752265 0.00564999974519014 16 0.168494939804077 -0.157961517572403 -0.19863748550415 0.304629683494568
0.0237500001862645 0.0600499968752265 0.00564999974519014 16 0.136972397565842 -0.221672654151917 -0.185786023736 0.320026010274887
0.0265500002279878 0.0600499968752265 0.00564999974519014 16 0.0884868428111076 -0.281560838222504 -0.152319744229317 0.332126051187515
0.029350000269711 0.0600499968752265 0.00564999974519014 16 0.0250403042882681 -0.329467117786407 -0.0944536849856377 0.343652576208115
0.0321500003114343 0.0600499968752265 0.00564999974519014 16 -0.0350629016757011 -0.359067112207413 -0.0355282723903656 0.362520158290863
0.0349500003531575 0.0600499968752265 0.00564999974519014 16 -0.0638860762119293 -0.370806932449341 -0.00526824593544006 0.376307010650635
-0.0350500006899238 0.0572499968335032 0.00564999974519014 16 0.175960421562195 -0.0987915694713593 -0.17223447561264 0.265304654836655
-0.0322500006482005 0.0572499968335032 0.00564999974519014 16 0.172627121210098 -0.114591851830482 -0.167991533875465 0.266744375228882
-0.0294500006064773 0.0572499968335032 0.00564999974519014 16 0.155769512057304 -0.153075829148293 -0.145031645894051 0.262165099382401
-0.026650000564754 0.0572499968335032 0.00564999974519014 16 0.125925421714783 -0.207450568675995 -0.108399115502834 0.265788108110428
-0.0238500005230308 0.0572499968335032 0.00564999974519014 16 0.0742760300636292 -0.269564747810364 -0.048101507127285 0.283717900514603
-0.0210500004813075 0.0572499968335032 0.00564999974519014 16 0.0089071411639452 -0.322934597730637 0.0215136632323265 0.323772937059402
-0.0182500004395843 0.0572499968335032 0.00564999974519014 16 -0.0710492879152298 -0.342095464468002 0.1066609993577 0.36531338095665
-0.015450000397861 0.0572499968335032 0.00564999974519014 16 -0.149893864989281 -0.308340817689896 0.192980736494064 0.393425703048706
-0.0126500003561378 0.0572499968335032 0.00564999974519014 16 -0.217016324400902 -0.213660314679146 0.271873652935028 0.408242702484131
-0.0098500003144145 0.0572499968335032 0.00564999974519014 16 -0.254883259534836 -0.0741890594363213 0.321456253528595 0.416897624731064
-0.00705000027269125 0.0572499968335032 0.00564999974519014 16 -0.250782877206802 0.0858644843101501 0.321800202131271 0.416917413473129
-0.004250000230968 0.0572499968335032 0.00564999974519014 16 -0.205000460147858 0.231171146035194 0.272527694702148 0.411991059780121
-0.00145000018924474 0.0572499968335032 0.00564999974519014 16 -0.121680423617363 0.332194060087204 0.175698414444923 0.395005017518997
0.0013499998524785 0.0572499968335032 0.00564999974519014 16 -0.0256763659417629 0.36573326587677 0.0637434646487236 0.372133493423462
0.00414999989420176 0.0572499968335032 0.00564999974519014 16 0.0667134523391724 0.333423614501953 -0.0442875884473324 0.342904329299927
0.006949999935925 0.0572499968335032 0.00564999974519014 16 0.131244391202927 0.251285523176193 -0.117730714380741 0.306969106197357
0.00974999997764826 0.0572499968335032 0.00564999974519014 16 0.168405368924141 0.149626687169075 -0.157893180847168 0.275097727775574
0.0125500000193715 0.0572499968335032 0.00564999974519014 16 0.17677566409111 0.0502888225018978 -0.167408213019371 0.248604327440262
0.0153500000610948 0.0572499968335032 0.00564999974519014 16 0.172293350100517 -0.0321564227342606 -0.166961997747421 0.242064759135246
0.018150000102818 0.0572499968335032 0.00564999974519014 16 0.159164115786552 -0.101498186588287 -0.164626717567444 0.250473648309708
0.0209500001445413 0.0572499968335032 0.00564999974519014 16 0.143320575356483 -0.164905235171318 -0.164843067526817 0.273692816495895
0.0237500001862645 0.0572499968335032 0.00564999974519014 16 0.118423007428646 -0.231391787528992 -0.157911762595177 0.304141908884048
0.0265500002279878 0.0572499968335032 0.00564999974519014 16 0.0788810849189758 -0.296072006225586 -0.134095937013626 0.334458649158478
0.029350000269711 0.0572499968335032 0.00564999974519014 16 0.0263271257281303 -0.349921733140945 -0.0892656520009041 0.362086564302444
0.0321500003114343 0.0572499968335032 0.00564999974519014 16 -0.0239254552870989 -0.384158164262772 -0.0409616641700268 0.387075930833817
0.0349500003531575 0.0572499968335032 0.00564999974519014 16 -0.0484218746423721 -0.397279769182205 -0.0147788431495428 0.400492608547211
-0.0350500006899238 0.05444999679178 0.00564999974519014 16 0.0861731320619583 -0.113137595355511 -0.0741506218910217 0.160387769341469
-0.0322500006482005 0.05444999679178 0.00564999974519014 16 0.0863199755549431 -0.130602434277534 -0.0710445269942284 0.171917006373405
-0.0294500006064773 0.05444999679178 0.00564999974519014 16 0.0799630135297775 -0.173466220498085 -0.0555611848831177 0.198926255106926
-0.026650000564754 0.05444999679178 0.00564999974519014 16 0.0654495730996132 -0.233513966202736 -0.0328612551093102 0.244728997349739
-0.0238500005230308 0.05444999679178 0.00564999974519014 16 0.0381526872515678 -0.300797790288925 0.00105569185689092 0.303209602832794
-0.0210500004813075 0.05444999679178 0.00564999974519014 16 0.00420771958306432 -0.356706529855728 0.036370787769556 0.358580678701401
-0.0182500004395843 0.05444999679178 0.00564999974519014 16 -0.0366687662899494 -0.375665068626404 0.0800028145313263 0.385835826396942
-0.015450000397861 0.05444999679178 0.00564999974519014 16 -0.0780279710888863 -0.337331116199493 0.127332419157028 0.368909478187561
-0.0126500003561378 0.05444999679178 0.00564999974519014 16 -0.115090280771255 -0.23410452902317 0.173814505338669 0.313468009233475
-0.0098500003144145 0.05444999679178 0.00564999974519014 16 -0.139685198664665 -0.0807052329182625 0.205306872725487 0.261105716228485
-0.00705000027269125 0.05444999679178 0.00564999974519014 16 -0.140530809760094 0.0951202288269997 0.205695271492004 0.266659557819366
-0.004250000230968 0.05444999679178 0.00564999974519014 16 -0.118195839226246 0.255703628063202 0.175825983285904 0.33206832408905
-0.00145000018924474 0.05444999679178 0.00564999974519014 16 -0.0696450397372246 0.367435544729233 0.114049881696701 0.390981703996658
0.0013499998524785 0.05444999679178 0.00564999974519014 16 -0.0126776434481144 0.406288415193558 0.0426678620278835 0.408719420433044
0.00414999989420176 0.05444999679178 0.00564999974519014 16 0.0441281348466873 0.371946215629578 -0.0269181914627552 0.375520795583725
0.006949999935925 0.05444999679178 0.00564999974519014 16 0.0808001011610031 0.280860751867294 -0.0712802857160568 0.300819367170334
0.00974999997764826 0.05444999679178 0.00564999974519014 16 0.09944948554039 0.165128469467163 -0.0901084542274475 0.21278427541256
0.0125500000193715 0.05444999679178 0.00564999974519014 16 0.0992697179317474 0.0522779710590839 -0.0870314240455627 0.141992717981339
0.0153500000610948 0.05444999679178 0.00564999974519014 16 0.0939490795135498 -0.0392199456691742 -0.0790805071592331 0.128912210464478
0.018150000102818 0.05444999679178 0.00564999974519014 16 0.0868870839476585 -0.112277515232563 -0.0770029574632645 0.161508709192276
0.0209500001445413 0.05444999679178 0.00564999974519014 16 0.0808498859405518 -0.176474660634995 -0.082258440554142 0.21082329750061
0.0237500001862645 0.05444999679178 0.00564999974519014 16 0.0708955526351929 -0.245244041085243 -0.0889908224344254 0.270351946353912
0.0265500002279878 0.05444999679178 0.00564999974519014 16 0.0516304112970829 -0.315171718597412 -0.0861770287156105 0.330795079469681
0.029350000269711 0.05444999679178 0.00564999974519014 16 0.0244266372174025 -0.377825409173965 -0.0705169141292572 0.385125070810318
0.0321500003114343 0.05444999679178 0.00564999974519014 16 -0.00237506860867143 -0.420129388570786 -0.0498661622405052 0.42308509349823
0.0349500003531575 0.05444999679178 0.00564999974519014 16 -0.0156880579888821 -0.436751425266266 -0.038010485470295 0.438682943582535
-0.0350500006899238 0.0516499967500567 0.00564999974519014 16 -0.0253063179552555 -0.120634980499744 0.0389452315866947 0.129266932606697
-0.0322500006482005 0.0516499967500567 0.00564999974519014 16 -0.0221451632678509 -0.140883922576904 0.0397358722984791 0.148046031594276
-0.0294500006064773 0.0516499967500567 0.00564999974519014 16 -0.0169325787574053 -0.187639221549034 0.0434232316911221 0.193341076374054
-0.026650000564754 0.0516499967500567 0.00564999974519014 16 -0.0123982168734074 -0.249643161892891 0.0452196300029755 0.2540083527565
-0.0238500005230308 0.0516499967500567 0.00564999974519014 16 -0.00907608028501272 -0.315230935811996 0.0452798269689083 0.31859564781189
-0.0210500004813075 0.0516499967500567 0.00564999974519014 16 -0.00345674762502313 -0.365852773189545 0.0396438911557198 0.368010640144348
-0.0182500004395843 0.0516499967500567 0.00564999974519014 16 0.00360181438736618 -0.379420667886734 0.0354710817337036 0.381092131137848
-0.015450000397861 0.0516499967500567 0.00564999974519014 16 0.00901071261614561 -0.33615118265152 0.035156823694706 0.338104754686356
-0.0126500003561378 0.0516499967500567 0.00564999974519014 16 0.0096398089081049 -0.230849400162697 0.0402682907879353 0.234533384442329
-0.0098500003144145 0.0516499967500567 0.00564999974519014 16 0.00303142494522035 -0.0757393091917038 0.0470233447849751 0.0892010480165482
-0.00705000027269125 0.0516499967500567 0.00564999974519014 16 -0.00427645025774837 0.100050210952759 0.0492393597960472 0.111592330038548
-0.004250000230968 0.0516499967500567 0.00564999974519014 16 -0.0112379873171449 0.261302351951599 0.04738999158144 0.265802592039108
-0.00145000018924474 0.0516499967500567 0.00564999974519014 16 -0.00719812698662281 0.373286783695221 0.0343964137136936 0.374937236309052
0.0013499998524785 0.0516499967500567 0.00564999974519014 16 0.00120207283180207 0.414257407188416 0.0172742940485477 0.414619147777557
0.00414999989420176 0.0516499967500567 0.00564999974519014 16 0.0134497610852122 0.380955576896667 -0.00106920173857361 0.381194442510605
0.006949999935925 0.0516499967500567 0.00564999974519014 16 0.0159872844815254 0.290166109800339 -0.0061892056837678 0.290672093629837
0.00974999997764826 0.0516499967500567 0.00564999974519014 16 0.0114228259772062 0.170763492584229 0.00413063960149884 0.171194955706596
0.0125500000193715 0.0516499967500567 0.00564999974519014 16 0.00110603426583111 0.0537529215216637 0.0227530859410763 0.0583806708455086
0.0153500000610948 0.0516499967500567 0.00564999974519014 16 -0.00514899799600244 -0.0421800911426544 0.0378532782196999 0.0569081977009773
0.018150000102818 0.0516499967500567 0.00564999974519014 16 -0.00412935158237815 -0.116717673838139 0.0374201610684395 0.122639045119286
0.0209500001445413 0.0516499967500567 0.00564999974519014 16 0.00221147481352091 -0.181058391928673 0.024880750104785 0.182773306965828
0.0237500001862645 0.0516499967500567 0.00564999974519014 16 0.0112059805542231 -0.248957470059395 0.00102266669273376 0.249211654067039
0.0265500002279878 0.0516499967500567 0.00564999974519014 16 0.017723647877574 -0.318091452121735 -0.0233806185424328 0.319441646337509
0.029350000269711 0.0516499967500567 0.00564999974519014 16 0.0225959736853838 -0.381059914827347 -0.0443854629993439 0.384301066398621
0.0321500003114343 0.0516499967500567 0.00564999974519014 16 0.025275781750679 -0.423732280731201 -0.056368388235569 0.428211748600006
0.0349500003531575 0.0516499967500567 0.00564999974519014 16 0.0264708641916513 -0.440820813179016 -0.0603165291249752 0.445714920759201
-0.0350500006899238 0.0488499967083335 0.00564999974519014 16 -0.122268527746201 -0.124686509370804 0.124076418578625 0.214222490787506
-0.0322500006482005 0.0488499967083335 0.00564999974519014 16 -0.116618491709232 -0.144401893019676 0.12084337323904 0.221483409404755
-0.0294500006064773 0.0488499967083335 0.00564999974519014 16 -0.102412603795528 -0.188955873250961 0.111691936850548 0.242214277386665
-0.026650000564754 0.0488499967083335 0.00564999974519014 16 -0.0809759199619293 -0.244983807206154 0.0935501828789711 0.274455457925797
-0.0238500005230308 0.0488499967083335 0.00564999974519014 16 -0.0510700158774853 -0.299456119537354 0.0653922706842422 0.310738265514374
-0.0210500004813075 0.0488499967083335 0.00564999974519014 16 -0.0112750995904207 -0.336425751447678 0.0261951461434364 0.337632328271866
-0.0182500004395843 0.0488499967083335 0.00564999974519014 16 0.0352359786629677 -0.339729845523834 -0.0169666893780231 0.341973394155502
-0.015450000397861 0.0488499967083335 0.00564999974519014 16 0.0793908759951591 -0.293882012367249 -0.0575050972402096 0.309800565242767
-0.0126500003561378 0.0488499967083335 0.00564999974519014 16 0.111117534339428 -0.196522042155266 -0.0872078835964203 0.242019072175026
-0.0098500003144145 0.0488499967083335 0.00564999974519014 16 0.121092952787876 -0.0570290386676788 -0.100904405117035 0.16762313246727
-0.00705000027269125 0.0488499967083335 0.00564999974519014 16 0.109789557754993 0.0983303412795067 -0.095512367784977 0.175628066062927
-0.004250000230968 0.0488499967083335 0.00564999974519014 16 0.080469898879528 0.241128444671631 -0.0716048628091812 0.264093905687332
-0.00145000018924474 0.0488499967083335 0.00564999974519014 16 0.0478842630982399 0.340855896472931 -0.0410855077207088 0.346646308898926
0.0013499998524785 0.0488499967083335 0.00564999974519014 16 0.0163886286318302 0.380489647388458 -0.0103049660101533 0.380981802940369
0.00414999989420176 0.0488499967083335 0.00564999974519014 16 -0.00900249928236008 0.353449583053589 0.0174526423215866 0.353994697332382
0.006949999935925 0.0488499967083335 0.00564999974519014 16 -0.035255491733551 0.274200290441513 0.049298033118248 0.280818521976471
0.00974999997764826 0.0488499967083335 0.00564999974519014 16 -0.06029212474823 0.164872050285339 0.0881377533078194 0.196433693170547
0.0125500000193715 0.0488499967083335 0.00564999974519014 16 -0.0805265977978706 0.056092195212841 0.123482003808022 0.157729744911194
0.0153500000610948 0.0488499967083335 0.00564999974519014 16 -0.089382030069828 -0.0368704907596111 0.146094396710396 0.175191760063171
0.018150000102818 0.0488499967083335 0.00564999974519014 16 -0.0832915678620338 -0.109642408788204 0.143122166395187 0.198602363467216
0.0209500001445413 0.0488499967083335 0.00564999974519014 16 -0.0669646933674812 -0.172084361314774 0.121535025537014 0.221061214804649
0.0237500001862645 0.0488499967083335 0.00564999974519014 16 -0.0417234674096107 -0.232948377728462 0.0813035294413567 0.250232011079788
0.0265500002279878 0.0488499967083335 0.00564999974519014 16 -0.0128242932260036 -0.29217129945755 0.0338640585541725 0.294406682252884
0.029350000269711 0.0488499967083335 0.00564999974519014 16 0.0193177852779627 -0.345059365034103 -0.0170492380857468 0.346019953489304
0.0321500003114343 0.0488499967083335 0.00564999974519014 16 0.0467398501932621 -0.38089844584465 -0.0574155040085316 0.388026773929596
0.0349500003531575 0.0488499967083335 0.00564999974519014 16 0.059711005538702 -0.396156221628189 -0.076147735118866 0.407803416252136
-0.0350500006899238 0.0460499966666102 0.00564999974519014 16 -0.168887242674828 -0.118392325937748 0.159417167305946 0.260678887367249
-0.0322500006482005 0.0460499966666102 0.00564999974519014 16 -0.162525072693825 -0.136539250612259 0.151973113417625 0.261061668395996
-0.0294500006064773 0.0460499966666102 0.00564999974519014 16 -0.145068928599358 -0.174807161092758 0.132866114377975 0.263165235519409
-0.026650000564754 0.0460499966666102 0.00564999974519014 16 -0.115198560059071 -0.219236046075821 0.100845865905285 0.26740425825119
-0.0238500005230308 0.0460499966666102 0.00564999974519014 16 -0.0720899105072021 -0.257169455289841 0.0568469427525997 0.2730652987957
-0.0210500004813075 0.0460499966666102 0.00564999974519014 16 -0.015627633780241 -0.277371674776077 0.00211169733665884 0.277819603681564
-0.0182500004395843 0.0460499966666102 0.00564999974519014 16 0.0477228835225105 -0.269155412912369 -0.0568744726479053 0.279207468032837
-0.015450000397861 0.0460499966666102 0.00564999974519014 16 0.107796095311642 -0.223294243216515 -0.114328540861607 0.273040890693665
-0.0126500003561378 0.0460499966666102 0.00564999974519014 16 0.151427611708641 -0.140092462301254 -0.159913092851639 0.261014193296432
-0.0098500003144145 0.0460499966666102 0.00564999974519014 16 0.168218314647675 -0.0282762888818979 -0.182652741670609 0.249917939305305
-0.00705000027269125 0.0460499966666102 0.00564999974519014 16 0.154547318816185 0.0924522280693054 -0.173820286989212 0.250291377305984
-0.004250000230968 0.0460499966666102 0.00564999974519014 16 0.115721642971039 0.202285349369049 -0.13433264195919 0.268990933895111
-0.00145000018924474 0.0460499966666102 0.00564999974519014 16 0.0665159672498703 0.279833227396011 -0.0797232836484909 0.298474133014679
0.0013499998524785 0.0460499966666102 0.00564999974519014 16 0.0174703784286976 0.312706112861633 -0.023224638774991 0.314053684473038
0.00414999989420176 0.0460499966666102 0.00564999974519014 16 -0.0247121639549732 0.294216483831406 0.0291241630911827 0.296685457229614
0.006949999935925 0.0460499966666102 0.00564999974519014 16 -0.0629531294107437 0.234246239066124 0.0811014473438263 0.255757391452789
0.00974999997764826 0.0460499966666102 0.00564999974519014 16 -0.0959687754511833 0.147485107183456 0.134905844926834 0.221723809838295
0.0125500000193715 0.0460499966666102 0.00564999974519014 16 -0.119886070489883 0.0578229390084743 0.178343683481216 0.22253680229187
0.0153500000610948 0.0460499966666102 0.00564999974519014 16 -0.129395037889481 -0.0242276415228844 0.203036069869995 0.241978719830513
0.018150000102818 0.0460499966666102 0.00564999974519014 16 -0.12101037800312 -0.0916146486997604 0.197641626000404 0.249196648597717
0.0209500001445413 0.0460499966666102 0.00564999974519014 16 -0.0991057530045509 -0.150423407554626 0.170974776148796 0.248357653617859
0.0237500001862645 0.0460499966666102 0.00564999974519014 16 -0.0647667273879051 -0.202512726187706 0.122422657907009 0.245343521237373
0.0265500002279878 0.0460499966666102 0.00564999974519014 16 -0.022827448323369 -0.248230561614037 0.0625818446278572 0.257013589143753
0.029350000269711 0.0460499966666102 0.00564999974519014 16 0.0240677781403065 -0.284462720155716 -0.00357955065555871 0.285501509904861
0.0321500003114343 0.0460499966666102 0.00564999974519014 16 0.0642978623509407 -0.30700421333313 -0.0571763291954994 0.318833708763123
0.0349500003531575 0.0460499966666102 0.00564999974519014 16 0.0834653750061989 -0.316258281469345 -0.0819170773029327 0.337188631296158
-0.0350500006899238 0.043249996624887 0.00564999974519014 16 -0.166419103741646 -0.112117096781731 0.150604039430618 0.250892698764801
-0.0322500006482005 0.043249996624887 0.00564999974519014 16 -0.160420775413513 -0.126107394695282 0.141024857759476 0.248044162988663
-0.0294500006064773 0.043249996624887 0.00564999974519014 16 -0.144096970558167 -0.154771372675896 0.117552891373634 0.241943791508675
-0.026650000564754 0.043249996624887 0.00564999974519014 16 -0.113981164991856 -0.185944393277168 0.0812216401100159 0.232731565833092
-0.0238500005230308 0.043249996624887 0.00564999974519014 16 -0.0706214904785156 -0.208741873502731 0.0349173098802567 0.223113834857941
-0.0210500004813075 0.043249996624887 0.00564999974519014 16 -0.0151381744071841 -0.215668886899948 -0.0193023327738047 0.217059478163719
-0.0182500004395843 0.043249996624887 0.00564999974519014 16 0.0442593358457088 -0.199577197432518 -0.0756631791591644 0.217979043722153
-0.015450000397861 0.043249996624887 0.00564999974519014 16 0.0990791916847229 -0.156418398022652 -0.129351556301117 0.225865513086319
-0.0126500003561378 0.043249996624887 0.00564999974519014 16 0.13711416721344 -0.0878320038318634 -0.170376375317574 0.23567533493042
-0.0098500003144145 0.043249996624887 0.00564999974519014 16 0.150922954082489 -0.00289609492756426 -0.188513249158859 0.241502329707146
-0.00705000027269125 0.043249996624887 0.00564999974519014 16 0.13661040365696 0.0855950862169266 -0.176312386989594 0.238903701305389
-0.004250000230968 0.043249996624887 0.00564999974519014 16 0.100287295877934 0.164383575320244 -0.135408267378807 0.235403701663017
-0.00145000018924474 0.043249996624887 0.00564999974519014 16 0.0536437146365643 0.221821933984756 -0.0798409655690193 0.241779237985611
0.0013499998524785 0.043249996624887 0.00564999974519014 16 0.00752672320231795 0.247993558645248 -0.0217245798557997 0.249057054519653
0.00414999989420176 0.043249996624887 0.00564999974519014 16 -0.0324190407991409 0.237794741988182 0.0336756333708763 0.242345586419106
0.006949999935925 0.043249996624887 0.00564999974519014 16 -0.0675465241074562 0.195369228720665 0.0876703411340714 0.224538996815681
0.00974999997764826 0.043249996624887 0.00564999974519014 16 -0.097053162753582 0.131128460168839 0.141118109226227 0.215704217553139
0.0125500000193715 0.043249996624887 0.00564999974519014 16 -0.11812599748373 0.0610837899148464 0.18192021548748 0.225344061851501
0.0153500000610948 0.043249996624887 0.00564999974519014 16 -0.126420363783836 -0.00748771661892533 0.204073458909988 0.240175262093544
0.018150000102818 0.043249996624887 0.00564999974519014 16 -0.118723042309284 -0.0677517056465149 0.197132155299187 0.239888608455658
0.0209500001445413 0.043249996624887 0.00564999974519014 16 -0.0967987626791 -0.121199555695057 0.169582605361938 0.229820773005486
0.0237500001862645 0.043249996624887 0.00564999974519014 16 -0.0614768862724304 -0.164961248636246 0.120499767363071 0.213334977626801
0.0265500002279878 0.043249996624887 0.00564999974519014 16 -0.0171119458973408 -0.199110999703407 0.0613133944571018 0.209039092063904
0.029350000269711 0.043249996624887 0.00564999974519014 16 0.0311693344265223 -0.222244635224342 -0.00345544773153961 0.224446296691895
0.0321500003114343 0.043249996624887 0.00564999974519014 16 0.0720070376992226 -0.235049992799759 -0.0558677352964878 0.252100616693497
0.0349500003531575 0.043249996624887 0.00564999974519014 16 0.0908754765987396 -0.240158632397652 -0.0803082287311554 0.269042611122131
-0.0350500006899238 0.0404499965831637 0.00564999974519014 16 -0.130994156002998 -0.101797141134739 0.122994683682919 0.206518322229385
-0.0322500006482005 0.0404499965831637 0.00564999974519014 16 -0.126025646924973 -0.112377919256687 0.113019667565823 0.203186377882957
-0.0294500006064773 0.0404499965831637 0.00564999974519014 16 -0.112642139196396 -0.133230656385422 0.0893987491726875 0.196037739515305
-0.026650000564754 0.0404499965831637 0.00564999974519014 16 -0.087587796151638 -0.154006376862526 0.055155199021101 0.185557752847672
-0.0238500005230308 0.0404499965831637 0.00564999974519014 16 -0.0520089641213417 -0.166344374418259 0.0140660740435123 0.174852043390274
-0.0210500004813075 0.0404499965831637 0.00564999974519014 16 -0.00800035428255796 -0.165307655930519 -0.0308094564825296 0.168344438076019
-0.0182500004395843 0.0404499965831637 0.00564999974519014 16 0.0364756844937801 -0.145849287509918 -0.0750452801585197 0.168030604720116
-0.015450000397861 0.0404499965831637 0.00564999974519014 16 0.0745869651436806 -0.106870606541634 -0.115494608879089 0.174136579036713
-0.0126500003561378 0.0404499965831637 0.00564999974519014 16 0.0977716818451881 -0.0502579472959042 -0.144319668412209 0.181420311331749
-0.0098500003144145 0.0404499965831637 0.00564999974519014 16 0.102725066244602 0.0146623151376843 -0.153515502810478 0.185295522212982
-0.00705000027269125 0.0404499965831637 0.00564999974519014 16 0.0878308266401291 0.0801068544387817 -0.137930646538734 0.182088509202003
-0.004250000230968 0.0404499965831637 0.00564999974519014 16 0.058641891926527 0.136264204978943 -0.100586019456387 0.17923267185688
-0.00145000018924474 0.0404499965831637 0.00564999974519014 16 0.0229376554489136 0.178188055753708 -0.0529570356011391 0.187300741672516
0.0013499998524785 0.0404499965831637 0.00564999974519014 16 -0.0112900715321302 0.197741538286209 -0.00455071777105331 0.198115855455399
0.00414999989420176 0.0404499965831637 0.00564999974519014 16 -0.0403023846447468 0.192940160632133 0.0414634235203266 0.201418474316597
0.006949999935925 0.0404499965831637 0.00564999974519014 16 -0.0648390725255013 0.164380937814713 0.0842460915446281 0.19576159119606
0.00974999997764826 0.0404499965831637 0.00564999974519014 16 -0.0851806774735451 0.119353979825974 0.124943740665913 0.192644894123077
0.0125500000193715 0.0404499965831637 0.00564999974519014 16 -0.0995179414749146 0.0663640722632408 0.153196841478348 0.194363787770271
0.0153500000610948 0.0404499965831637 0.00564999974519014 16 -0.104744225740433 0.0107497535645962 0.16759592294693 0.19792751967907
0.018150000102818 0.0404499965831637 0.00564999974519014 16 -0.0972083732485771 -0.0421079881489277 0.159098953008652 0.191141381859779
0.0209500001445413 0.0404499965831637 0.00564999974519014 16 -0.0768562406301498 -0.0900908410549164 0.135458558797836 0.179922938346863
0.0237500001862645 0.0404499965831637 0.00564999974519014 16 -0.0442786663770676 -0.128895789384842 0.0935490876436234 0.165306240320206
0.0265500002279878 0.0404499965831637 0.00564999974519014 16 -0.00333265867084265 -0.156745493412018 0.0438908375799656 0.162808671593666
0.029350000269711 0.0404499965831637 0.00564999974519014 16 0.0392670594155788 -0.172640219330788 -0.0106966635212302 0.177372395992279
0.0321500003114343 0.0404499965831637 0.00564999974519014 16 0.0743812322616577 -0.179168462753296 -0.0534897930920124 0.201233848929405
0.0349500003531575 0.0404499965831637 0.00564999974519014 16 0.0901359170675278 -0.180825546383858 -0.0738425552845001 0.215116456151009
-0.0350500006899238 0.0376499965414405 0.00564999974519014 16 -0.0917411744594574 -0.092336393892765 0.0951898619532585 0.161256194114685
-0.0322500006482005 0.0376499965414405 0.00564999974519014 16 -0.087268240749836 -0.100255221128464 0.0854659751057625 0.158023059368134
-0.0294500006064773 0.0376499965414405 0.00564999974519014 16 -0.0759200975298882 -0.115922681987286 0.0630082190036774 0.152223408222198
-0.026650000564754 0.0376499965414405 0.00564999974519014 16 -0.0558307953178883 -0.130177825689316 0.0322472341358662 0.145269498229027
-0.0238500005230308 0.0376499965414405 0.00564999974519014 16 -0.028491422533989 -0.136771202087402 -0.00230274652130902 0.139726251363754
-0.0210500004813075 0.0376499965414405 0.00564999974519014 16 0.00327516905963421 -0.132240042090416 -0.0373375229537487 0.137449070811272
-0.0182500004395843 0.0376499965414405 0.00564999974519014 16 0.0331906490027905 -0.112877428531647 -0.0699021220207214 0.136854812502861
-0.015450000397861 0.0376499965414405 0.00564999974519014 16 0.055636815726757 -0.0790747106075287 -0.0968797579407692 0.13687202334404
-0.0126500003561378 0.0376499965414405 0.00564999974519014 16 0.0653555691242218 -0.031659908592701 -0.112014554440975 0.133495166897774
-0.0098500003144145 0.0376499965414405 0.00564999974519014 16 0.0615187510848045 0.0205867234617472 -0.110516995191574 0.128149822354317
-0.00705000027269125 0.0376499965414405 0.00564999974519014 16 0.0450439490377903 0.0727516114711761 -0.0914729982614517 0.125255987048149