TITLE="DynamicStudio Exported Data"
VARIABLES= "X (m)[m]" "Y (m)[m]" "Z (m)[m]" "Status[-]" "U[-]" "V[-]" "W[-]" "Length[-]"
ZONE T="DynamicStudio Data" F=POINT
-0.0350500006899238 0.0600499968752265 0.00564999974519014 16 -0.166093587875366 -0.404399216175079 0.189197525382042 0.47636279463768
-0.0322500006482005 0.0600499968752265 0.00564999974519014 16 -0.198632568120956 -0.36946177482605 0.228115022182465 0.477486491203308
-0.0294500006064773 0.0600499968752265 0.00564999974519014 16 -0.267527759075165 -0.283674895763397 0.311280012130737 0.498936682939529
-0.026650000564754 0.0600499968752265 0.00564999974519014 16 -0.322640895843506 -0.153802737593651 0.369733691215515 0.514252305030823
-0.0238500005230308 0.0600499968752265 0.00564999974519014 16 -0.339505285024643 0.000412649736972526 0.379917711019516 0.50951099395752
-0.0210500004813075 0.0600499968752265 0.00564999974519014 16 -0.296980649232864 0.147887200117111 0.316127568483353 0.458262771368027
-0.0182500004395843 0.0600499968752265 0.00564999974519014 16 -0.208031609654427 0.255751490592957 0.209083631634712 0.390386909246445
-0.015450000397861 0.0600499968752265 0.00564999974519014 16 -0.0956603214144707 0.306258797645569 0.0812534913420677 0.330979585647583
-0.0126500003561378 0.0600499968752265 0.00564999974519014 16 0.0148256421089172 0.301407635211945 -0.0405327752232552 0.304481953382492
-0.0098500003144145 0.0600499968752265 0.00564999974519014 16 0.102887563407421 0.257454454898834 -0.147054895758629 0.313837200403214
-0.00705000027269125 0.0600499968752265 0.00564999974519014 16 0.165067508816719 0.195003807544708 -0.232503399252892 0.345444053411484
-0.004250000230968 0.0600499968752265 0.00564999974519014 16 0.202937141060829 0.130081132054329 -0.29034560918808 0.377366065979004
-0.00145000018924474 0.0600499968752265 0.00564999974519014 16 0.223561823368073 0.0712480247020721 -0.321343302726746 0.39789155125618
0.0013499998524785 0.0600499968752265 0.00564999974519014 16 0.234639495611191 0.0173802655190229 -0.332245320081711 0.407117575407028
0.00414999989420176 0.0600499968752265 0.00564999974519014 16 0.237817645072937 -0.0426766872406006 -0.334062576293945 0.41228187084198
0.006949999935925 0.0600499968752265 0.00564999974519014 16 0.226834461092949 -0.119432516396046 -0.324485391378403 0.413532048463821
0.00974999997764826 0.0600499968752265 0.00564999974519014 16 0.188944280147552 -0.212609693408012 -0.28736612200737 0.404329210519791
0.0125500000193715 0.0600499968752265 0.00564999974519014 16 0.113662660121918 -0.302646845579147 -0.207760319113731 0.38428983092308
0.0153500000610948 0.0600499968752265 0.00564999974519014 16 0.00403173500671983 -0.357527613639832 -0.0812815651297569 0.366672813892365
0.018150000102818 0.0600499968752265 0.00564999974519014 16 -0.121893867850304 -0.348525822162628 0.067060574889183 0.37526723742485
0.0209500001445413 0.0600499968752265 0.00564999974519014 16 -0.234293565154076 -0.264195919036865 0.209632441401482 0.410656452178955
0.0237500001862645 0.0600499968752265 0.00564999974519014 16 -0.301633507013321 -0.120040647685528 0.302917718887329 0.444017648696899
0.0265500002279878 0.0600499968752265 0.00564999974519014 16 -0.309789717197418 0.0490428395569324 0.336573332548141 0.460061401128769
0.029350000269711 0.0600499968752265 0.00564999974519014 16 -0.268214017152786 0.20243376493454 0.309117287397385 0.456586986780167
0.0321500003114343 0.0600499968752265 0.00564999974519014 16 -0.21291446685791 0.308954387903214 0.262949883937836 0.458179026842117
0.0349500003531575 0.0600499968752265 0.00564999974519014 16 -0.182283148169518 0.353805541992188 0.233068540692329 0.461222797632217
-0.0350500006899238 0.0572499968335032 0.00564999974519014 16 -0.13855767250061 -0.436944991350174 0.149890214204788 0.482271939516068
-0.0322500006482005 0.0572499968335032 0.00564999974519014 16 -0.165231183171272 -0.398716151714325 0.18297179043293 0.468779891729355
-0.0294500006064773 0.0572499968335032 0.00564999974519014 16 -0.221519529819489 -0.304592967033386 0.25378891825676 0.454154819250107
-0.026650000564754 0.0572499968335032 0.00564999974519014 16 -0.267427146434784 -0.16246397793293 0.305537223815918 0.437338352203369
-0.0238500005230308 0.0572499968335032 0.00564999974519014 16 -0.283170461654663 0.00424393452703953 0.317762196063995 0.425648123025894
-0.0210500004813075 0.0572499968335032 0.00564999974519014 16 -0.250337243080139 0.162519171833992 0.268398255109787 0.401396095752716
-0.0182500004395843 0.0572499968335032 0.00564999974519014 16 -0.178422957658768 0.277377426624298 0.180637076497078 0.376035541296005
-0.015450000397861 0.0572499968335032 0.00564999974519014 16 -0.0844509154558182 0.330216616392136 0.0726977735757828 0.348511040210724
-0.0126500003561378 0.0572499968335032 0.00564999974519014 16 0.00957800354808569 0.323735684156418 -0.0342626124620438 0.325684607028961
-0.0098500003144145 0.0572499968335032 0.00564999974519014 16 0.0868355482816696 0.275112986564636 -0.130852997303009 0.316780805587769
-0.00705000027269125 0.0572499968335032 0.00564999974519014 16 0.142450302839279 0.207241669297218 -0.211528554558754 0.328611522912979
-0.004250000230968 0.0572499968335032 0.00564999974519014 16 0.176613628864288 0.136850848793983 -0.266753882169724 0.347962886095047
-0.00145000018924474 0.0572499968335032 0.00564999974519014 16 0.194685578346252 0.0745911672711372 -0.295296967029572 0.361478358507156
0.0013499998524785 0.0572499968335032 0.00564999974519014 16 0.202934935688972 0.018492853268981 -0.302023947238922 0.364339172840118
0.00414999989420176 0.0572499968335032 0.00564999974519014 16 0.20482736825943 -0.043266549706459 -0.29932501912117 0.365269392728806
0.006949999935925 0.0572499968335032 0.00564999974519014 16 0.195171788334846 -0.123798452317715 -0.287316471338272 0.368739515542984
0.00974999997764826 0.0572499968335032 0.00564999974519014 16 0.164559915661812 -0.223328456282616 -0.254946261644363 0.376766741275787
0.0125500000193715 0.0572499968335032 0.00564999974519014 16 0.103070296347141 -0.321367412805557 -0.189433753490448 0.387021481990814
0.0153500000610948 0.0572499968335032 0.00564999974519014 16 0.0130127109587193 -0.383401274681091 -0.0853101536631584 0.392993241548538
0.018150000102818 0.0572499968335032 0.00564999974519014 16 -0.0924734845757484 -0.377489745616913 0.0401755608618259 0.390722334384918
0.0209500001445413 0.0572499968335032 0.00564999974519014 16 -0.187803044915199 -0.289849638938904 0.16436143219471 0.382488548755646
0.0237500001862645 0.0572499968335032 0.00564999974519014 16 -0.246327668428421 -0.135098680853844 0.250494122505188 0.376399099826813
0.0265500002279878 0.0572499968335032 0.00564999974519014 16 -0.254933029413223 0.0493052341043949 0.285087585449219 0.385612219572067
0.029350000269711 0.0572499968335032 0.00564999974519014 16 -0.221948459744453 0.217959508299828 0.266364961862564 0.409533590078354
0.0321500003114343 0.0572499968335032 0.00564999974519014 16 -0.177261024713516 0.335695415735245 0.228955671191216 0.443321079015732
0.0349500003531575 0.0572499968335032 0.00564999974519014 16 -0.152626916766167 0.384287297725677 0.204805418848991 0.461429238319397
-0.0350500006899238 0.05444999679178 0.00564999974519014 16 -0.0767327845096588 -0.484124660491943 0.0621720962226391 0.494095116853714
-0.0322500006482005 0.05444999679178 0.00564999974519014 16 -0.0875505656003952 -0.440987646579742 0.080396980047226 0.456726253032684
-0.0294500006064773 0.05444999679178 0.00564999974519014 16 -0.113330133259296 -0.334375590085983 0.122683599591255 0.373767346143723
-0.026650000564754 0.05444999679178 0.00564999974519014 16 -0.135368496179581 -0.17357636988163 0.156507030129433 0.270088583230972
-0.0238500005230308 0.05444999679178 0.00564999974519014 16 -0.147830247879028 0.0125617142766714 0.173444420099258 0.228242293000221
-0.0210500004813075 0.05444999679178 0.00564999974519014 16 -0.136550456285477 0.187486201524734 0.156534120440483 0.279821425676346
-0.0182500004395843 0.05444999679178 0.00564999974519014 16 -0.104159489274025 0.313321739435196 0.114444814622402 0.349452883005142
-0.015450000397861 0.05444999679178 0.00564999974519014 16 -0.054385669529438 0.369940876960754 0.0535301119089127 0.377729445695877
-0.0126500003561378 0.05444999679178 0.00564999974519014 16 2.19054027184029e-06 0.361762881278992 -0.0175148751586676 0.362186640501022
-0.0098500003144145 0.05444999679178 0.00564999974519014 16 0.0490124896168709 0.306382447481155 -0.0887400805950165 0.322718501091003
-0.00705000027269125 0.05444999679178 0.00564999974519014 16 0.085717111825943 0.230401515960693 -0.153690129518509 0.289918839931488
-0.004250000230968 0.05444999679178 0.00564999974519014 16 0.107969462871552 0.15053653717041 -0.198029890656471 0.271172434091568
-0.00145000018924474 0.05444999679178 0.00564999974519014 16 0.117973022162914 0.0811840146780014 -0.218956664204597 0.261630445718765
0.0013499998524785 0.05444999679178 0.00564999974519014 16 0.120283097028732 0.0191813409328461 -0.217722654342651 0.249477654695511
0.00414999989420176 0.05444999679178 0.00564999974519014 16 0.120016887784004 -0.046417098492384 -0.206876307725906 0.243631705641747
0.006949999935925 0.05444999679178 0.00564999974519014 16 0.115322634577751 -0.132772922515869 -0.192275553941727 0.260572165250778
0.00974999997764826 0.05444999679178 0.00564999974519014 16 0.102433525025845 -0.241210326552391 -0.172402203083038 0.313683867454529
0.0125500000193715 0.05444999679178 0.00564999974519014 16 0.0734491869807243 -0.350972592830658 -0.140336945652962 0.385059744119644
0.0153500000610948 0.05444999679178 0.00564999974519014 16 0.0287835244089365 -0.423446387052536 -0.0879478678107262 0.433439910411835
0.018150000102818 0.05444999679178 0.00564999974519014 16 -0.0279160961508751 -0.421912968158722 -0.0175541434437037 0.423199743032455
0.0209500001445413 0.05444999679178 0.00564999974519014 16 -0.0811000019311905 -0.329401731491089 0.0601651035249233 0.344532370567322
0.0237500001862645 0.05444999679178 0.00564999974519014 16 -0.115887686610222 -0.160025730729103 0.1217350512743 0.232072427868843
0.0265500002279878 0.05444999679178 0.00564999974519014 16 -0.123249791562557 0.0463286451995373 0.15280456840992 0.201707944273949
0.029350000269711 0.05444999679178 0.00564999974519014 16 -0.108720071613789 0.238553315401077 0.150079414248466 0.302078753709793
0.0321500003114343 0.05444999679178 0.00564999974519014 16 -0.0883357971906662 0.374957025051117 0.132797718048096 0.407469272613525
0.0349500003531575 0.05444999679178 0.00564999974519014 16 -0.0768268406391144 0.431057453155518 0.119924210011959 0.453976541757584
-0.0350500006899238 0.0516499967500567 0.00564999974519014 16 -0.00471354322507977 -0.485302269458771 -0.0476340614259243 0.487657159566879
-0.0322500006482005 0.0516499967500567 0.00564999974519014 16 0.0026424597017467 -0.440646082162857 -0.0463699512183666 0.443087041378021
-0.0294500006064773 0.0516499967500567 0.00564999974519014 16 0.0123934373259544 -0.330443501472473 -0.0381063632667065 0.332864224910736
-0.026650000564754 0.0516499967500567 0.00564999974519014 16 0.0199990123510361 -0.165679335594177 -0.0262854248285294 0.168939411640167
-0.0238500005230308 0.0516499967500567 0.00564999974519014 16 0.0159233380109072 0.0233991388231516 -0.00785997789353132 0.0293743368238211
-0.0210500004813075 0.0516499967500567 0.00564999974519014 16 0.00721025886014104 0.19987590610981 0.0087449811398983 0.200197011232376
-0.0182500004395843 0.0516499967500567 0.00564999974519014 16 -0.00339607312344015 0.326974898576736 0.0181789267808199 0.327497452497482
-0.015450000397861 0.0516499967500567 0.00564999974519014 16 -0.0068649067543447 0.383739143610001 0.0156725365668535 0.384120404720306
-0.0126500003561378 0.0516499967500567 0.00564999974519014 16 -0.00426215399056673 0.375639200210571 -0.0039482512511313 0.37568411231041
-0.0098500003144145 0.0516499967500567 0.00564999974519014 16 0.00410839729011059 0.318400979042053 -0.034066554158926 0.320244580507278
-0.00705000027269125 0.0516499967500567 0.00564999974519014 16 0.0120490901172161 0.239468336105347 -0.0704323798418045 0.249901950359344
-0.004250000230968 0.0516499967500567 0.00564999974519014 16 0.0160451661795378 0.15388011932373 -0.0959141254425049 0.182033121585846
-0.00145000018924474 0.0516499967500567 0.00564999974519014 16 0.0147048402577639 0.0788359344005585 -0.105256982147694 0.132326751947403
0.0013499998524785 0.0516499967500567 0.00564999974519014 16 0.0114571778103709 0.010560205206275 -0.0980552285909653 0.0992855131626129
0.00414999989420176 0.0516499967500567 0.00564999974519014 16 0.0109772942960262 -0.0585819259285927 -0.0846275389194489 0.103509239852428
0.006949999935925 0.0516499967500567 0.00564999974519014 16 0.015107792802155 -0.147039264440536 -0.0754834860563278 0.165971532464027
0.00974999997764826 0.0516499967500567 0.00564999974519014 16 0.0240264907479286 -0.254448503255844 -0.075406976044178 0.266472369432449
0.0125500000193715 0.0516499967500567 0.00564999974519014 16 0.033589094877243 -0.362141281366348 -0.08381137996912 0.373227655887604
0.0153500000610948 0.0516499967500567 0.00564999974519014 16 0.0422712080180645 -0.432739108800888 -0.0923891216516495 0.444506168365479
0.018150000102818 0.0516499967500567 0.00564999974519014 16 0.0446338541805744 -0.431729227304459 -0.0903550907969475 0.443335503339767
0.0209500001445413 0.0516499967500567 0.00564999974519014 16 0.0441461019217968 -0.341025590896606 -0.0744553133845329 0.351839333772659
0.0237500001862645 0.0516499967500567 0.00564999974519014 16 0.0411084108054638 -0.172208726406097 -0.0496131107211113 0.183867365121841
0.0265500002279878 0.0516499967500567 0.00564999974519014 16 0.0379867628216743 0.0371392108500004 -0.0270374733954668 0.0596098974347115
0.029350000269711 0.0516499967500567 0.00564999974519014 16 0.0321739427745342 0.235246956348419 -0.0113138183951378 0.237706318497658
0.0321500003114343 0.0516499967500567 0.00564999974519014 16 0.0237167924642563 0.377457201480865 -0.00207481090910733 0.378207266330719
0.0349500003531575 0.0516499967500567 0.00564999974519014 16 0.0187685340642929 0.435964167118073 0.00163586973212659 0.436371058225632
-0.0350500006899238 0.0488499967083335 0.00564999974519014 16 0.053132489323616 -0.423283725976944 -0.139028578996658 0.448688238859177
-0.0322500006482005 0.0488499967083335 0.00564999974519014 16 0.0746281296014786 -0.382282942533493 -0.150657817721367 0.417621105909348
-0.0294500006064773 0.0488499967083335 0.00564999974519014 16 0.1128960698843 -0.282610893249512 -0.169682845473289 0.348434656858444
-0.026650000564754 0.0488499967083335 0.00564999974519014 16 0.1449134349823 -0.134658575057983 -0.175778076052666 0.264633268117905
-0.0238500005230308 0.0488499967083335 0.00564999974519014 16 0.150318652391434 0.0348984077572823 -0.158601611852646 0.221287295222282
-0.0210500004813075 0.0488499967083335 0.00564999974519014 16 0.129179060459137 0.192833214998245 -0.117809779942036 0.260290265083313
-0.0182500004395843 0.0488499967083335 0.00564999974519014 16 0.0877402946352959 0.30731612443924 -0.068305641412735 0.326813727617264
-0.015450000397861 0.0488499967083335 0.00564999974519014 16 0.0424405410885811 0.359249502420425 -0.0233676508069038 0.36250165104866
-0.0126500003561378 0.0488499967083335 0.00564999974519014 16 0.00136704556643963 0.353106260299683 0.0029332498088479 0.353121101856232
-0.0098500003144145 0.0488499967083335 0.00564999974519014 16 -0.0284936707466841 0.301523298025131 0.0129180867224932 0.303141981363297
-0.00705000027269125 0.0488499967083335 0.00564999974519014 16 -0.0503357127308846 0.228174462914467 0.00980927422642708 0.233866393566132
-0.004250000230968 0.0488499967083335 0.00564999974519014 16 -0.0661349669098854 0.145290032029152 0.00697529595345259 0.159786358475685
-0.00145000018924474 0.0488499967083335 0.00564999974519014 16 -0.078669860959053 0.0691656693816185 0.0103079015389085 0.105257257819176
0.0013499998524785 0.0488499967083335 0.00564999974519014 16 -0.0850560143589973 -0.00270590861327946 0.0197183154523373 0.0873536467552185
0.00414999989420176 0.0488499967083335 0.00564999974519014 16 -0.0830288678407669 -0.0722710117697716 0.0291032213717699 0.113859079778194
0.006949999935925 0.0488499967083335 0.00564999974519014 16 -0.0685874372720718 -0.154970094561577 0.0267273522913456 0.171564325690269
0.00974999997764826 0.0488499967083335 0.00564999974519014 16 -0.0408506877720356 -0.247904926538467 0.00572535442188382 0.251313388347626
0.0125500000193715 0.0488499967083335 0.00564999974519014 16 -0.000763429910875857 -0.338146269321442 -0.0364946015179157 0.340110778808594
0.0153500000610948 0.0488499967083335 0.00564999974519014 16 0.0484014376997948 -0.394261807203293 -0.0928863435983658 0.407937437295914
0.018150000102818 0.0488499967083335 0.00564999974519014 16 0.0974956005811691 -0.390084266662598 -0.146860703825951 0.428064465522766
0.0209500001445413 0.0488499967083335 0.00564999974519014 16 0.140520989894867 -0.310033947229385 -0.186418622732162 0.388096779584885
0.0237500001862645 0.0488499967083335 0.00564999974519014 16 0.166670337319374 -0.163585439324379 -0.201366305351257 0.308362752199173
0.0265500002279878 0.0488499967083335 0.00564999974519014 16 0.17063944041729 0.0197837799787521 -0.194693744182587 0.259643733501434
0.029350000269711 0.0488499967083335 0.00564999974519014 16 0.152291461825371 0.196669608354568 -0.170347183942795 0.301479339599609
0.0321500003114343 0.0488499967083335 0.00564999974519014 16 0.123562626540661 0.326140135526657 -0.142693802714348 0.376824408769608
0.0349500003531575 0.0488499967083335 0.00564999974519014 16 0.107324250042439 0.380989015102386 -0.127506941556931 0.415847480297089
-0.0350500006899238 0.0460499966666102 0.00564999974519014 16 0.0726697891950607 -0.317634344100952 -0.186886698007584 0.375631600618362
-0.0322500006482005 0.0460499966666102 0.00564999974519014 16 0.0984732806682587 -0.284539222717285 -0.202049121260643 0.362606406211853
-0.0294500006064773 0.0460499966666102 0.00564999974519014 16 0.146602690219879 -0.204973757266998 -0.230844601988792 0.341754049062729
-0.026650000564754 0.0460499966666102 0.00564999974519014 16 0.188565596938133 -0.0880649164319038 -0.244236811995506 0.320880085229874
-0.0238500005230308 0.0460499966666102 0.00564999974519014 16 0.20205058157444 0.045289471745491 -0.230690628290176 0.309989899396896
-0.0210500004813075 0.0460499966666102 0.00564999974519014 16 0.182397082448006 0.169925421476364 -0.185003042221069 0.310434311628342
-0.0182500004395843 0.0460499966666102 0.00564999974519014 16 0.134860798716545 0.260657131671906 -0.122331865131855 0.317953854799271
-0.015450000397861 0.0460499966666102 0.00564999974519014 16 0.0748045146465302 0.302923321723938 -0.05680962651968 0.317152291536331
-0.0126500003561378 0.0460499966666102 0.00564999974519014 16 0.0136425653472543 0.298409998416901 -0.0029567948076874 0.298736333847046
-0.0098500003144145 0.0460499966666102 0.00564999974519014 16 -0.0371492207050323 0.256655693054199 0.0344816409051418 0.261612683534622
-0.00705000027269125 0.0460499966666102 0.00564999974519014 16 -0.0767855495214462 0.194467052817345 0.0574980713427067 0.216839760541916
-0.004250000230968 0.0460499966666102 0.00564999974519014 16 -0.104034930467606 0.121613271534443 0.0714984685182571 0.17528572678566
-0.00145000018924474 0.0460499966666102 0.00564999974519014 16 -0.121557980775833 0.0507566779851913 0.0822317451238632 0.155288904905319
0.0013499998524785 0.0460499966666102 0.00564999974519014 16 -0.126150369644165 -0.0185130070894957 0.0873120278120041 0.154531672596931
0.00414999989420176 0.0460499966666102 0.00564999974519014 16 -0.119240276515484 -0.084041066467762 0.0854547992348671 0.169067054986954
0.006949999935925 0.0460499966666102 0.00564999974519014 16 -0.097417488694191 -0.155051529407501 0.0690227970480919 0.195691823959351
0.00974999997764826 0.0460499966666102 0.00564999974519014 16 -0.0619975514709949 -0.225178524851799 0.0337875559926033 0.235988691449165
0.0125500000193715 0.0460499966666102 0.00564999974519014 16 -0.0113536650314927 -0.287198901176453 -0.0223850216716528 0.288293600082397
0.0153500000610948 0.0460499966666102 0.00564999974519014 16 0.0506307929754257 -0.320066720247269 -0.0962972864508629 0.338052272796631
0.018150000102818 0.0460499966666102 0.00564999974519014 16 0.11656242609024 -0.31063187122345 -0.173798128962517 0.374546051025391
0.0209500001445413 0.0460499966666102 0.00564999974519014 16 0.176351323723793 -0.248141914606094 -0.241757556796074 0.388742744922638
0.0237500001862645 0.0460499966666102 0.00564999974519014 16 0.216362625360489 -0.13836732506752 -0.282052546739578 0.381460279226303
0.0265500002279878 0.0460499966666102 0.00564999974519014 16 0.225643843412399 -0.000105305764009245 -0.288697183132172 0.366416722536087
0.029350000269711 0.0460499966666102 0.00564999974519014 16 0.204720884561539 0.135658010840416 -0.264282375574112 0.36077544093132
0.0321500003114343 0.0460499966666102 0.00564999974519014 16 0.169378325343132 0.236684814095497 -0.229239270091057 0.370485305786133
0.0349500003531575 0.0460499966666102 0.00564999974519014 16 0.148938059806824 0.280433177947998 -0.208719357848167 0.37998566031456
-0.0350500006899238 0.043249996624887 0.00564999974519014 16 0.0619605258107185 -0.218137189745903 -0.187023058533669 0.293939739465714
-0.0322500006482005 0.043249996624887 0.00564999974519014 16 0.0844315961003304 -0.192228361964226 -0.200860723853111 0.290560603141785
-0.0294500006064773 0.043249996624887 0.00564999974519014 16 0.127503916621208 -0.131894484162331 -0.227190479636192 0.292008429765701
-0.026650000564754 0.043249996624887 0.00564999974519014 16 0.166139647364616 -0.0443028397858143 -0.239815667271614 0.295087575912476
-0.0238500005230308 0.043249996624887 0.00564999974519014 16 0.181643635034561 0.0536993965506554 -0.228561863303185 0.296847701072693
-0.0210500004813075 0.043249996624887 0.00564999974519014 16 0.16880701482296 0.145255386829376 -0.188112780451775 0.291515618562698
-0.0182500004395843 0.043249996624887 0.00564999974519014 16 0.130815505981445 0.211475908756256 -0.130500689148903 0.280829459428787
-0.015450000397861 0.043249996624887 0.00564999974519014 16 0.0788552984595299 0.243432432413101 -0.0683319121599197 0.264852315187454
-0.0126500003561378 0.043249996624887 0.00564999974519014 16 0.0218085516244173 0.239899069070816 -0.0114989709109068 0.241162598133087
-0.0098500003144145 0.043249996624887 0.00564999974519014 16 -0.0287824813276529 0.207590773701668 0.0329478979110718 0.212150707840919
-0.00705000027269125 0.043249996624887 0.00564999974519014 16 -0.0699526593089104 0.157286003232002 0.0665308386087418 0.184549763798714
-0.004250000230968 0.043249996624887 0.00564999974519014 16 -0.0963098555803299 0.0970250517129898 0.0861089080572128 0.16156792640686
-0.00145000018924474 0.043249996624887 0.00564999974519014 16 -0.110503800213337 0.0354102402925491 0.0964334234595299 0.150878697633743
0.0013499998524785 0.043249996624887 0.00564999974519014 16 -0.109774887561798 -0.0264314524829388 0.0947482660412788 0.147398710250854
0.00414999989420176 0.043249996624887 0.00564999974519014 16 -0.0994681641459465 -0.0844214409589767 0.0833410322666168 0.154811576008797
0.006949999935925 0.043249996624887 0.00564999974519014 16 -0.0765470415353775 -0.141660466790199 0.0589623674750328 0.171475067734718
0.00974999997764826 0.043249996624887 0.00564999974519014 16 -0.0446427389979362 -0.190739706158638 0.0206199660897255 0.196976631879807
0.0125500000193715 0.043249996624887 0.00564999974519014 16 -0.00074272759957239 -0.228791519999504 -0.0305341649800539 0.23082123696804
0.0153500000610948 0.043249996624887 0.00564999974519014 16 0.0510774105787277 -0.243999764323235 -0.0954261422157288 0.26692870259285
0.018150000102818 0.043249996624887 0.00564999974519014 16 0.108268201351166 -0.232356771826744 -0.166466400027275 0.30565133690834
0.0209500001445413 0.043249996624887 0.00564999974519014 16 0.161909997463226 -0.188009306788445 -0.235929220914841 0.342381298542023
0.0237500001862645 0.043249996624887 0.00564999974519014 16 0.200954660773277 -0.113961279392242 -0.284661144018173 0.366608679294586
0.0265500002279878 0.043249996624887 0.00564999974519014 16 0.212693259119987 -0.0202149357646704 -0.300904840230942 0.369040369987488
0.029350000269711 0.043249996624887 0.00564999974519014 16 0.196839481592178 0.074203796684742 -0.285269528627396 0.354444205760956
0.0321500003114343 0.043249996624887 0.00564999974519014 16 0.166821137070656 0.146447077393532 -0.255602031946182 0.33853867650032
0.0349500003531575 0.043249996624887 0.00564999974519014 16 0.149504601955414 0.178704336285591 -0.238658919930458 0.3335340321064
-0.0350500006899238 0.0404499965831637 0.00564999974519014 16 0.0357780680060387 -0.145486578345299 -0.165592640638351 0.223309963941574
-0.0322500006482005 0.0404499965831637 0.00564999974519014 16 0.0511590205132961 -0.125296875834465 -0.173901781439781 0.220359668135643
-0.0294500006064773 0.0404499965831637 0.00564999974519014 16 0.0809976905584335 -0.0790793970227242 -0.189862787723541 0.221047624945641
-0.026650000564754 0.0404499965831637 0.00564999974519014 16 0.109125338494778 -0.0131009453907609 -0.195873364806175 0.22460263967514
-0.0238500005230308 0.0404499965831637 0.00564999974519014 16 0.122626677155495 0.058335542678833 -0.185559511184692 0.229940578341484
-0.0210500004813075 0.0404499965831637 0.00564999974519014 16 0.117778368294239 0.124580450356007 -0.155147552490234 0.231220230460167
-0.0182500004395843 0.0404499965831637 0.00564999974519014 16 0.0947893857955933 0.171939179301262 -0.112277552485466 0.226173281669617
-0.015450000397861 0.0404499965831637 0.00564999974519014 16 0.060126043856144 0.19542022049427 -0.0636371225118637 0.214135199785233
-0.0126500003561378 0.0404499965831637 0.00564999974519014 16 0.0186543464660645 0.191967412829399 -0.0153768192976713 0.193483635783195
-0.0098500003144145 0.0404499965831637 0.00564999974519014 16 -0.0192884746938944 0.165792524814606 0.0248328689485788 0.168747961521149
-0.00705000027269125 0.0404499965831637 0.00564999974519014 16 -0.0501753911375999 0.124294631183147 0.0559093467891216 0.145232856273651
-0.004250000230968 0.0404499965831637 0.00564999974519014 16 -0.0665522590279579 0.0744731947779655 0.0712719485163689 0.122699432075024
-0.00145000018924474 0.0404499965831637 0.00564999974519014 16 -0.0714767277240753 0.0226655080914497 0.0746578127145767 0.105813220143318
0.0013499998524785 0.0404499965831637 0.00564999974519014 16 -0.0633122846484184 -0.0297356080263853 0.0643524304032326 0.0950467586517334
0.00414999989420176 0.0404499965831637 0.00564999974519014 16 -0.05069674924016 -0.079115241765976 0.0459633506834507 0.104604072868824
0.006949999935925 0.0404499965831637 0.00564999974519014 16 -0.0315614268183708 -0.124854378402233 0.0199304446578026 0.130314856767654
0.00974999997764826 0.0404499965831637 0.00564999974519014 16 -0.0097432117909193 -0.159680411219597 -0.0126100899651647 0.160473600029945
0.0125500000193715 0.0404499965831637 0.00564999974519014 16 0.0195886064320803 -0.18174834549427 -0.0493397787213326 0.189342513680458
0.0153500000610948 0.0404499965831637 0.00564999974519014 16 0.0531872995197773 -0.186129495501518 -0.0938261449337006 0.215119555592537
0.018150000102818 0.0404499965831637 0.00564999974519014 16 0.0911310464143753 -0.174183502793312 -0.144117102026939 0.243750900030136
0.0209500001445413 0.0404499965831637 0.00564999974519014 16 0.12804614007473 -0.143960908055305 -0.199194952845573 0.277126669883728
0.0237500001862645 0.0404499965831637 0.00564999974519014 16 0.157030269503593 -0.0960190743207932 -0.243175208568573 0.304979264736176
0.0265500002279878 0.0404499965831637 0.00564999974519014 16 0.167503029108047 -0.0350094139575958 -0.262254059314728 0.313145518302917
0.029350000269711 0.0404499965831637 0.00564999974519014 16 0.157358109951019 0.0277590695768595 -0.254699140787125 0.300672233104706
0.0321500003114343 0.0404499965831637 0.00564999974519014 16 0.135634437203407 0.0767154321074486 -0.232809334993362 0.280146658420563
0.0349500003531575 0.0404499965831637 0.00564999974519014 16 0.122836485505104 0.0987189710140228 -0.220387026667595 0.270933002233505
-0.0350500006899238 0.0376499965414405 0.00564999974519014 16 0.0195739921182394 -0.105517901480198 -0.138306438922882 0.175059527158737
-0.0322500006482005 0.0376499965414405 0.00564999974519014 16 0.0278117917478085 -0.0883885249495506 -0.142663672566414 0.170114532113075
-0.0294500006064773 0.0376499965414405 0.00564999974519014 16 0.0442275367677212 -0.0498202256858349 -0.150461494922638 0.164550274610519
-0.026650000564754 0.0376499965414405 0.00564999974519014 16 0.0602440573275089 0.00350576988421381 -0.149946883320808 0.161634474992752
-0.0238500005230308 0.0376499965414405 0.00564999974519014 16 0.0681356340646744 0.059168990701437 -0.139077886939049 0.165789306163788
-0.0210500004813075 0.0376499965414405 0.00564999974519014 16 0.0657746493816376 0.109692573547363 -0.114506378769875 0.171669661998749
-0.0182500004395843 0.0376499965414405 0.00564999974519014 16 0.0524593479931355 0.145450189709663 -0.0829309299588203 0.175457343459129
-0.015450000397861 0.0376499965414405 0.00564999974519014 16 0.0317898653447628 0.163611814379692 -0.0463084764778614 0.17298524081707
-0.0126500003561378 0.0376499965414405 0.00564999974519014 16 0.00586315849795938 0.160598888993263 -0.0103379394859076 0.161038041114807
-0.0098500003144145 0.0376499965414405 0.00564999974519014 16 -0.0178033988922834 0.138547748327255 0.0199987757951021 0.141111269593239
-0.00705000027269125 0.0376499965414405 0.00564999974519014 16 -0.0353871323168278 0.102937161922455 0.0408723950386047 0.116270631551743
-0.004250000230968 0.0376499965414405 0.00564999974519014 16 -0.0395498424768448 0.0601907782256603 0.0463935248553753 0.0856707617640495