TITLE="DynamicStudio Exported Data"
VARIABLES= "X (m)[m]" "Y (m)[m]" "Z (m)[m]" "Status[-]" "U[-]" "V[-]" "W[-]" "Length[-]"
ZONE T="DynamicStudio Data" F=POINT
-0.0350500006899238 0.0600499968752265 0.00564999974519014 16 0.105830945074558 0.35033768415451 -0.073100171983242 0.37320277094841
-0.0322500006482005 0.0600499968752265 0.00564999974519014 16 0.125540092587471 0.31695219874382 -0.0994351878762245 0.355114579200745
-0.0294500006064773 0.0600499968752265 0.00564999974519014 16 0.165463253855705 0.244968190789223 -0.151069596409798 0.33197820186615
-0.026650000564754 0.0600499968752265 0.00564999974519014 16 0.202624022960663 0.154840588569641 -0.207337439060211 0.328665345907211
-0.0238500005230308 0.0600499968752265 0.00564999974519014 16 0.224913910031319 0.0664307996630669 -0.245965644717216 0.339850574731827
-0.0210500004813075 0.0600499968752265 0.00564999974519014 16 0.230524614453316 -0.0110794985666871 -0.266861617565155 0.352816492319107
-0.0182500004395843 0.0600499968752265 0.00564999974519014 16 0.221825987100601 -0.0857325047254562 -0.265600711107254 0.356511652469635
-0.015450000397861 0.0600499968752265 0.00564999974519014 16 0.202980667352676 -0.16305410861969 -0.249766021966934 0.360792011022568
-0.0126500003561378 0.0600499968752265 0.00564999974519014 16 0.165910378098488 -0.246572762727737 -0.212123781442642 0.365131318569183
-0.0098500003144145 0.0600499968752265 0.00564999974519014 16 0.106677152216434 -0.318388700485229 -0.149569511413574 0.367590010166168
-0.00705000027269125 0.0600499968752265 0.00564999974519014 16 0.0197050664573908 -0.360674232244492 -0.0578237920999527 0.365811139345169
-0.004250000230968 0.0600499968752265 0.00564999974519014 16 -0.0876855179667473 -0.351008623838425 0.0595860555768013 0.366669207811356
-0.00145000018924474 0.0600499968752265 0.00564999974519014 16 -0.198678955435753 -0.281133621931076 0.181981399655342 0.389392703771591
0.0013499998524785 0.0600499968752265 0.00564999974519014 16 -0.28494256734848 -0.153182819485664 0.281076997518539 0.428557485342026
0.00414999989420176 0.0600499968752265 0.00564999974519014 16 -0.31966558098793 0.00878759939223528 0.322699695825577 0.454310894012451
0.006949999935925 0.0600499968752265 0.00564999974519014 16 -0.289968430995941 0.173542007803917 0.295157939195633 0.448683321475983
0.00974999997764826 0.0600499968752265 0.00564999974519014 16 -0.203920394182205 0.302360445261002 0.203923165798187 0.417839705944061
0.0125500000193715 0.0600499968752265 0.00564999974519014 16 -0.0875064805150032 0.37512618303299 0.0855410993099213 0.394581168889999
0.0153500000610948 0.0600499968752265 0.00564999974519014 16 0.0331406146287918 0.381456643342972 -0.0326409824192524 0.384282320737839
0.018150000102818 0.0600499968752265 0.00564999974519014 16 0.132972851395607 0.331401139497757 -0.116070307791233 0.375474125146866
0.0209500001445413 0.0600499968752265 0.00564999974519014 16 0.201483324170113 0.244792550802231 -0.161993771791458 0.356034994125366
0.0237500001862645 0.0600499968752265 0.00564999974519014 16 0.234964460134506 0.144131287932396 -0.170331791043282 0.324029386043549
0.0265500002279878 0.0600499968752265 0.00564999974519014 16 0.240763008594513 0.0521188266575336 -0.16138681769371 0.294497698545456
0.029350000269711 0.0600499968752265 0.00564999974519014 16 0.232437118887901 -0.0215276442468166 -0.149210900068283 0.277045756578445
0.0321500003114343 0.0600499968752265 0.00564999974519014 16 0.220049723982811 -0.0693385675549507 -0.142146453261375 0.270989537239075
0.0349500003531575 0.0600499968752265 0.00564999974519014 16 0.213918000459671 -0.0886543616652489 -0.138327836990356 0.269731521606445
-0.0350500006899238 0.0572499968335032 0.00564999974519014 16 0.082859180867672 0.369767546653748 -0.0484929755330086 0.382027804851532
-0.0322500006482005 0.0572499968335032 0.00564999974519014 16 0.0997569262981415 0.335417687892914 -0.0732575803995132 0.357523620128632
-0.0294500006064773 0.0572499968335032 0.00564999974519014 16 0.133263200521469 0.259203523397446 -0.120757326483727 0.315480411052704
-0.026650000564754 0.0572499968335032 0.00564999974519014 16 0.165164113044739 0.162941783666611 -0.173556342720985 0.289743006229401
-0.0238500005230308 0.0572499968335032 0.00564999974519014 16 0.18373142182827 0.0679161697626114 -0.208779752254486 0.286284536123276
-0.0210500004813075 0.0572499968335032 0.00564999974519014 16 0.188207775354385 -0.0154928090050817 -0.227632448077202 0.295768022537231
-0.0182500004395843 0.0572499968335032 0.00564999974519014 16 0.180758967995644 -0.0939950048923492 -0.226119011640549 0.304366022348404
-0.015450000397861 0.0572499968335032 0.00564999974519014 16 0.166394114494324 -0.175395280122757 -0.214031398296356 0.322893083095551
-0.0126500003561378 0.0572499968335032 0.00564999974519014 16 0.13921882212162 -0.26294931769371 -0.185786291956902 0.35077166557312
-0.0098500003144145 0.0572499968335032 0.00564999974519014 16 0.0944892540574074 -0.340661644935608 -0.136923596262932 0.379112958908081
-0.00705000027269125 0.0572499968335032 0.00564999974519014 16 0.0250477083027363 -0.387613981962204 -0.0616215541958809 0.393280059099197
-0.004250000230968 0.0572499968335032 0.00564999974519014 16 -0.0650304406881332 -0.379826456308365 0.038676843047142 0.387289315462112
-0.00145000018924474 0.0572499968335032 0.00564999974519014 16 -0.161824956536293 -0.306333780288696 0.146262496709824 0.376059055328369
0.0013499998524785 0.0572499968335032 0.00564999974519014 16 -0.239294320344925 -0.169275537133217 0.235264837741852 0.375853061676025
0.00414999989420176 0.0572499968335032 0.00564999974519014 16 -0.27256178855896 0.00573311373591423 0.275307387113571 0.38744929432869
0.006949999935925 0.0572499968335032 0.00564999974519014 16 -0.249361991882324 0.184710621833801 0.254347950220108 0.401238441467285
0.00974999997764826 0.0572499968335032 0.00564999974519014 16 -0.176899909973145 0.325517028570175 0.176968678832054 0.410576224327087
0.0125500000193715 0.0572499968335032 0.00564999974519014 16 -0.0777454972267151 0.404905200004578 0.0745751783251762 0.418991684913635
0.0153500000610948 0.0572499968335032 0.00564999974519014 16 0.0247409492731094 0.410391569137573 -0.0276624578982592 0.41206619143486
0.018150000102818 0.0572499968335032 0.00564999974519014 16 0.109500974416733 0.3536576628685 -0.0986170470714569 0.383131206035614
0.0209500001445413 0.0572499968335032 0.00564999974519014 16 0.167231336236 0.257485061883926 -0.13589970767498 0.33575826883316
0.0237500001862645 0.0572499968335032 0.00564999974519014 16 0.195064753293991 0.149055451154709 -0.137905031442642 0.281576961278915
0.0265500002279878 0.0572499968335032 0.00564999974519014 16 0.199749782681465 0.0523896887898445 -0.125102609395981 0.241444230079651
0.029350000269711 0.0572499968335032 0.00564999974519014 16 0.19257952272892 -0.0231227092444897 -0.109508417546749 0.222741171717644
0.0321500003114343 0.0572499968335032 0.00564999974519014 16 0.182642266154289 -0.0711177736520767 -0.101814739406109 0.220866873860359
0.0349500003531575 0.0572499968335032 0.00564999974519014 16 0.177697584033012 -0.0910254865884781 -0.0987935736775398 0.222760498523712
-0.0350500006899238 0.05444999679178 0.00564999974519014 16 0.0290043223649263 0.401091933250427 0.0143293924629688 0.402394473552704
-0.0322500006482005 0.05444999679178 0.00564999974519014 16 0.0382977500557899 0.3641756772995 -0.00497010629624128 0.366217643022537
-0.0294500006064773 0.05444999679178 0.00564999974519014 16 0.0556358322501183 0.280677169561386 -0.0411026179790497 0.289075165987015
-0.026650000564754 0.05444999679178 0.00564999974519014 16 0.0738114938139915 0.173894807696342 -0.0844966843724251 0.206947416067123
-0.0238500005230308 0.05444999679178 0.00564999974519014 16 0.0833555459976196 0.0674939006567001 -0.113461412489414 0.156131565570831
-0.0210500004813075 0.05444999679178 0.00564999974519014 16 0.0857387036085129 -0.0260800309479237 -0.130338102579117 0.158174946904182
-0.0182500004395843 0.05444999679178 0.00564999974519014 16 0.0816967785358429 -0.110404387116432 -0.130617812275887 0.189537614583969
-0.015450000397861 0.05444999679178 0.00564999974519014 16 0.0781492367386818 -0.196635186672211 -0.12721461057663 0.246893212199211
-0.0126500003561378 0.05444999679178 0.00564999974519014 16 0.0720728561282158 -0.288858860731125 -0.118653491139412 0.320488035678864
-0.0098500003144145 0.05444999679178 0.00564999974519014 16 0.0590531826019287 -0.374333173036575 -0.100178487598896 0.391979992389679
-0.00705000027269125 0.05444999679178 0.00564999974519014 16 0.0294154398143291 -0.427849769592285 -0.0645078122615814 0.433684170246124
-0.004250000230968 0.05444999679178 0.00564999974519014 16 -0.0190686993300915 -0.422357529401779 -0.00705512426793575 0.422846615314484
-0.00145000018924474 0.05444999679178 0.00564999974519014 16 -0.0798574090003967 -0.343564361333847 0.0616332367062569 0.358067482709885
0.0013499998524785 0.05444999679178 0.00564999974519014 16 -0.13384111225605 -0.193564087152481 0.124140791594982 0.266066610813141
0.00414999989420176 0.05444999679178 0.00564999974519014 16 -0.161710307002068 0.000244829308940098 0.158113241195679 0.22616383433342
0.006949999935925 0.05444999679178 0.00564999974519014 16 -0.152575135231018 0.20098303258419 0.152055338025093 0.294608503580093
0.00974999997764826 0.05444999679178 0.00564999974519014 16 -0.111492328345776 0.360926687717438 0.107219457626343 0.392676204442978
0.0125500000193715 0.05444999679178 0.00564999974519014 16 -0.0534548759460449 0.451056092977524 0.0452986657619476 0.456465750932693
0.0153500000610948 0.05444999679178 0.00564999974519014 16 0.00599956000223756 0.455451965332031 -0.0170562956482172 0.455810695886612
0.018150000102818 0.05444999679178 0.00564999974519014 16 0.0542262718081474 0.388339728116989 -0.0553385466337204 0.395993173122406
0.0209500001445413 0.05444999679178 0.00564999974519014 16 0.0864020511507988 0.277848333120346 -0.0701762065291405 0.299315422773361
0.0237500001862645 0.05444999679178 0.00564999974519014 16 0.10114623606205 0.157598078250885 -0.0577138438820839 0.195955604314804
0.0265500002279878 0.05444999679178 0.00564999974519014 16 0.103510446846485 0.0542349331080914 -0.0372908487915993 0.122663959860802
0.029350000269711 0.05444999679178 0.00564999974519014 16 0.0991834700107574 -0.0225671995431185 -0.015563977882266 0.102902270853519
0.0321500003114343 0.05444999679178 0.00564999974519014 16 0.0939396247267723 -0.069187618792057 -0.00431217672303319 0.116748332977295
0.0349500003531575 0.05444999679178 0.00564999974519014 16 0.0910487920045853 -0.0875689908862114 0.00112716946750879 0.126330837607384
-0.0350500006899238 0.0516499967500567 0.00564999974519014 16 -0.0252802073955536 0.405584931373596 0.085425965487957 0.415253937244415
-0.0322500006482005 0.0516499967500567 0.00564999974519014 16 -0.0267259199172258 0.369599848985672 0.0751042887568474 0.378099173307419
-0.0294500006064773 0.0516499967500567 0.00564999974519014 16 -0.0309031121432781 0.285971939563751 0.0541926808655262 0.292697459459305
-0.026650000564754 0.0516499967500567 0.00564999974519014 16 -0.032424159348011 0.176360815763474 0.0252111367881298 0.181080266833305
-0.0238500005230308 0.0516499967500567 0.00564999974519014 16 -0.0357906073331833 0.0647253543138504 0.00423418404534459 0.0740828439593315
-0.0210500004813075 0.0516499967500567 0.00564999974519014 16 -0.036773856729269 -0.0357252657413483 -0.00977618712931871 0.0521937273442745
-0.0182500004395843 0.0516499967500567 0.00564999974519014 16 -0.0369026847183704 -0.123913586139679 -0.0134274801239371 0.129987239837646
-0.015450000397861 0.0516499967500567 0.00564999974519014 16 -0.0282897315919399 -0.21109427511692 -0.0204896442592144 0.213964775204659
-0.0126500003561378 0.0516499967500567 0.00564999974519014 16 -0.010799759067595 -0.300082445144653 -0.03529267385602 0.302343636751175
-0.0098500003144145 0.0516499967500567 0.00564999974519014 16 0.0121815977618098 -0.382423132658005 -0.0531417392194271 0.386289864778519
-0.00705000027269125 0.0516499967500567 0.00564999974519014 16 0.0296391453593969 -0.433310836553574 -0.0669545754790306 0.439453840255737
-0.004250000230968 0.0516499967500567 0.00564999974519014 16 0.0325136110186577 -0.42648720741272 -0.0645072013139725 0.432561725378036
-0.00145000018924474 0.0516499967500567 0.00564999974519014 16 0.0190331023186445 -0.346366584300995 -0.0478522144258022 0.350174099206924
0.0013499998524785 0.0516499967500567 0.00564999974519014 16 -0.00203990167938173 -0.194671034812927 -0.0215573292225599 0.195871621370316
0.00414999989420176 0.0516499967500567 0.00564999974519014 16 -0.0197507627308369 0.00206143874675035 0.00170242181047797 0.0199308916926384
0.006949999935925 0.0516499967500567 0.00564999974519014 16 -0.0263537019491196 0.206397548317909 0.0130961090326309 0.208484947681427
0.00974999997764826 0.0516499967500567 0.00564999974519014 16 -0.0236244108527899 0.371018558740616 0.00904098711907864 0.371879816055298
0.0125500000193715 0.0516499967500567 0.00564999974519014 16 -0.0170900262892246 0.463713824748993 -0.000186962919542566 0.464028656482697
0.0153500000610948 0.0516499967500567 0.00564999974519014 16 -0.0121966097503901 0.468426674604416 -0.00803579762578011 0.468654334545135
0.018150000102818 0.0516499967500567 0.00564999974519014 16 -0.0117889596149325 0.398864775896072 -5.69481271668337e-05 0.399038970470428
0.0209500001445413 0.0516499967500567 0.00564999974519014 16 -0.0140069341287017 0.285842925310135 0.0179753955453634 0.286749869585037
0.0237500001862645 0.0516499967500567 0.00564999974519014 16 -0.018093915656209 0.164517283439636 0.049756433814764 0.172826588153839
0.0265500002279878 0.0516499967500567 0.00564999974519014 16 -0.0196536686271429 0.0600015185773373 0.0788397938013077 0.101005755364895
0.029350000269711 0.0516499967500567 0.00564999974519014 16 -0.0195812527090311 -0.0180232245475054 0.10266300290823 0.106056369841099
0.0321500003114343 0.0516499967500567 0.00564999974519014 16 -0.0173625275492668 -0.0672523602843285 0.11224989593029 0.132001429796219
0.0349500003531575 0.0516499967500567 0.00564999974519014 16 -0.016095208004117 -0.0869778096675873 0.114909395575523 0.145011603832245
-0.0350500006899238 0.0488499967083335 0.00564999974519014 16 -0.0587290450930595 0.373934894800186 0.142646685242653 0.404505223035812
-0.0322500006482005 0.0488499967083335 0.00564999974519014 16 -0.0703960582613945 0.34042826294899 0.142274454236031 0.375618189573288
-0.0294500006064773 0.0488499967083335 0.00564999974519014 16 -0.0951639711856842 0.263422042131424 0.138810694217682 0.312595188617706
-0.026650000564754 0.0488499967083335 0.00564999974519014 16 -0.117174446582794 0.161100938916206 0.127805754542351 0.236680537462234
-0.0238500005230308 0.0488499967083335 0.00564999974519014 16 -0.134052470326424 0.0547698326408863 0.115570612251759 0.185273766517639
-0.0210500004813075 0.0488499967083335 0.00564999974519014 16 -0.139944106340408 -0.0433972142636776 0.103677593171597 0.179490149021149
-0.0182500004395843 0.0488499967083335 0.00564999974519014 16 -0.136894345283508 -0.128247022628784 0.0940736308693886 0.209850445389748
-0.015450000397861 0.0488499967083335 0.00564999974519014 16 -0.118755891919136 -0.208273902535439 0.0765561759471893 0.251678019762039
-0.0126500003561378 0.0488499967083335 0.00564999974519014 16 -0.0830749124288559 -0.284296870231628 0.0417689234018326 0.29911670088768
-0.0098500003144145 0.0488499967083335 0.00564999974519014 16 -0.0328605994582176 -0.351748675107956 -0.00697468593716621 0.35334911942482
-0.00705000027269125 0.0488499967083335 0.00564999974519014 16 0.0222452860325575 -0.389978051185608 -0.0647068098187447 0.395935237407684
-0.004250000230968 0.0488499967083335 0.00564999974519014 16 0.0678750947117805 -0.378501176834106 -0.11159885674715 0.400405377149582
-0.00145000018924474 0.0488499967083335 0.00564999974519014 16 0.095781996846199 -0.303998738527298 -0.141924187541008 0.348900973796844
0.0013499998524785 0.0488499967083335 0.00564999974519014 16 0.104305781424046 -0.168429434299469 -0.147599950432777 0.247050434350967
0.00414999989420176 0.0488499967083335 0.00564999974519014 16 0.0977188423275948 0.00728069525212049 -0.136073246598244 0.167683959007263
0.006949999935925 0.0488499967083335 0.00564999974519014 16 0.0802327543497086 0.190001472830772 -0.11255656927824 0.234961345791817
0.00974999997764826 0.0488499967083335 0.00564999974519014 16 0.0530004575848579 0.339430421590805 -0.083741270005703 0.353602409362793
0.0125500000193715 0.0488499967083335 0.00564999974519014 16 0.016874834895134 0.42414465546608 -0.0461632274091244 0.426983028650284
0.0153500000610948 0.0488499967083335 0.00564999974519014 16 -0.0246091187000275 0.43115234375 -0.00296807754784822 0.43186429142952
0.018150000102818 0.0488499967083335 0.00564999974519014 16 -0.0663827881217003 0.371429711580276 0.0497554875910282 0.380581557750702
0.0209500001445413 0.0488499967083335 0.00564999974519014 16 -0.0992268770933151 0.272764325141907 0.100036233663559 0.307007491588593
0.0237500001862645 0.0488499967083335 0.00564999974519014 16 -0.120107263326645 0.164928793907166 0.149283528327942 0.252809882164001
0.0265500002279878 0.0488499967083335 0.00564999974519014 16 -0.125081226229668 0.0684496834874153 0.184122070670128 0.232876807451248
0.029350000269711 0.0488499967083335 0.00564999974519014 16 -0.121177852153778 -0.00674431957304478 0.206533953547478 0.239553406834602
0.0321500003114343 0.0488499967083335 0.00564999974519014 16 -0.11290293186903 -0.0573963448405266 0.213937237858772 0.248617276549339
0.0349500003531575 0.0488499967083335 0.00564999974519014 16 -0.108401149511337 -0.0776624977588654 0.214996710419655 0.252993792295456
-0.0350500006899238 0.0460499966666102 0.00564999974519014 16 -0.0529071763157845 0.308041334152222 0.153765231370926 0.348327964544296
-0.0322500006482005 0.0460499966666102 0.00564999974519014 16 -0.0704510733485222 0.280722349882126 0.161145091056824 0.331264436244965
-0.0294500006064773 0.0460499966666102 0.00564999974519014 16 -0.107144273817539 0.21760293841362 0.172176852822304 0.297448843717575
-0.026650000564754 0.0460499966666102 0.00564999974519014 16 -0.143563836812973 0.132155686616898 0.177890062332153 0.264046549797058
-0.0238500005230308 0.0460499966666102 0.00564999974519014 16 -0.170634478330612 0.0411138124763966 0.17520235478878 0.247996643185616
-0.0210500004813075 0.0460499966666102 0.00564999974519014 16 -0.181862115859985 -0.0457787401974201 0.166507631540298 0.250787377357483
-0.0182500004395843 0.0460499966666102 0.00564999974519014 16 -0.177600055932999 -0.1213603541255 0.151859134435654 0.26330840587616
-0.015450000397861 0.0460499966666102 0.00564999974519014 16 -0.155411690473557 -0.189473688602448 0.126618474721909 0.275835663080215
-0.0126500003561378 0.0460499966666102 0.00564999974519014 16 -0.112177863717079 -0.247681975364685 0.0803021118044853 0.283511310815811
-0.0098500003144145 0.0460499966666102 0.00564999974519014 16 -0.0518621802330017 -0.293965399265289 0.0158513281494379 0.298925757408142
-0.00705000027269125 0.0460499966666102 0.00564999974519014 16 0.01821518689394 -0.314439624547958 -0.0634587407112122 0.321295946836472
-0.004250000230968 0.0460499966666102 0.00564999974519014 16 0.0820632502436638 -0.297252655029297 -0.134836181998253 0.336562484502792
-0.00145000018924474 0.0460499966666102 0.00564999974519014 16 0.129083514213562 -0.233306512236595 -0.188338071107864 0.326444029808044
0.0013499998524785 0.0460499966666102 0.00564999974519014 16 0.151752129197121 -0.124911643564701 -0.209265947341919 0.287095576524734
0.00414999989420176 0.0460499966666102 0.00564999974519014 16 0.151298820972443 0.0132487900555134 -0.204284459352493 0.254556477069855
0.006949999935925 0.0460499966666102 0.00564999974519014 16 0.129833996295929 0.156157746911049 -0.175873637199402 0.268651515245438
0.00974999997764826 0.0460499966666102 0.00564999974519014 16 0.0907369703054428 0.274624705314636 -0.133369371294975 0.318495392799377
0.0125500000193715 0.0460499966666102 0.00564999974519014 16 0.0358091555535793 0.344342768192291 -0.0729556232690811 0.353803277015686
0.0153500000610948 0.0460499966666102 0.00564999974519014 16 -0.0275701489299536 0.355907917022705 -0.00235095084644854 0.35698190331459
0.018150000102818 0.0460499966666102 0.00564999974519014 16 -0.0917749628424644 0.315901100635529 0.0778215527534485 0.338041931390762
0.0209500001445413 0.0460499966666102 0.00564999974519014 16 -0.14229379594326 0.243866771459579 0.148784950375557 0.319148063659668
0.0237500001862645 0.0460499966666102 0.00564999974519014 16 -0.173787117004395 0.160135328769684 0.208783432841301 0.315334439277649
0.0265500002279878 0.0460499966666102 0.00564999974519014 16 -0.181347459554672 0.0782682672142982 0.244949579238892 0.314663499593735
0.029350000269711 0.0460499966666102 0.00564999974519014 16 -0.174325317144394 0.00771063473075628 0.261928528547287 0.314730554819107
0.0321500003114343 0.0460499966666102 0.00564999974519014 16 -0.161265537142754 -0.0448410622775555 0.262558162212372 0.311374485492706
0.0349500003531575 0.0460499966666102 0.00564999974519014 16 -0.154046565294266 -0.067268118262291 0.259177654981613 0.308914870023727
-0.0350500006899238 0.043249996624887 0.00564999974519014 16 -0.0237491391599178 0.236206024885178 0.131263539195061 0.271270006895065
-0.0322500006482005 0.043249996624887 0.00564999974519014 16 -0.0421496853232384 0.214056298136711 0.142267599701881 0.260454922914505
-0.0294500006064773 0.043249996624887 0.00564999974519014 16 -0.0806153267621994 0.164331942796707 0.16214619576931 0.244530588388443
-0.026650000564754 0.043249996624887 0.00564999974519014 16 -0.121158927679062 0.0970096960663795 0.179037764668465 0.236949130892754
-0.0238500005230308 0.043249996624887 0.00564999974519014 16 -0.151826590299606 0.0245225057005882 0.184193521738052 0.239958167076111
-0.0210500004813075 0.043249996624887 0.00564999974519014 16 -0.166818737983704 -0.0464465282857418 0.178764626383781 0.248882621526718
-0.0182500004395843 0.043249996624887 0.00564999974519014 16 -0.164167538285255 -0.108735829591751 0.161480918526649 0.254657715559006
-0.015450000397861 0.043249996624887 0.00564999974519014 16 -0.143613502383232 -0.16311539709568 0.132854297757149 0.254718959331512
-0.0126500003561378 0.043249996624887 0.00564999974519014 16 -0.102871835231781 -0.205381259322166 0.0840063169598579 0.24458359181881
-0.0098500003144145 0.043249996624887 0.00564999974519014 16 -0.0467757880687714 -0.234367489814758 0.0180070698261261 0.239667162299156
-0.00705000027269125 0.043249996624887 0.00564999974519014 16 0.0180772356688976 -0.241398721933365 -0.0612571462988853 0.249704957008362
-0.004250000230968 0.043249996624887 0.00564999974519014 16 0.0777232423424721 -0.221104755997658 -0.132523149251938 0.26924079656601
-0.00145000018924474 0.043249996624887 0.00564999974519014 16 0.121519342064857 -0.169653713703156 -0.18381679058075 0.278097003698349
0.0013499998524785 0.043249996624887 0.00564999974519014 16 0.142586037516594 -0.0888441875576973 -0.203010991215706 0.263510018587112
0.00414999989420176 0.043249996624887 0.00564999974519014 16 0.142115324735641 0.0112927518785 -0.198680534958839 0.244536802172661
0.006949999935925 0.043249996624887 0.00564999974519014 16 0.122584119439125 0.115472950041294 -0.172864109277725 0.241335600614548
0.00974999997764826 0.043249996624887 0.00564999974519014 16 0.0869669690728188 0.203404933214188 -0.133917570114136 0.258593767881393
0.0125500000193715 0.043249996624887 0.00564999974519014 16 0.0342254899442196 0.259099215269089 -0.073055736720562 0.271368622779846
0.0153500000610948 0.043249996624887 0.00564999974519014 16 -0.0288134068250656 0.275512546300888 0.000492602994199842 0.277015566825867
0.018150000102818 0.043249996624887 0.00564999974519014 16 -0.0948954746127129 0.255874305963516 0.08562932908535 0.286023080348969
0.0209500001445413 0.043249996624887 0.00564999974519014 16 -0.147208347916603 0.210663065314293 0.159825399518013 0.302643984556198
0.0237500001862645 0.043249996624887 0.00564999974519014 16 -0.179157361388206 0.151651591062546 0.219299986958504 0.321228981018066
0.0265500002279878 0.043249996624887 0.00564999974519014 16 -0.186231732368469 0.0865708738565445 0.251720100641251 0.324868857860565
0.029350000269711 0.043249996624887 0.00564999974519014 16 -0.177887618541718 0.0248868390917778 0.26346081495285 0.318865120410919
0.0321500003114343 0.043249996624887 0.00564999974519014 16 -0.164172366261482 -0.0245530921965837 0.260523796081543 0.308914333581924
0.0349500003531575 0.043249996624887 0.00564999974519014 16 -0.156844198703766 -0.0461419112980366 0.2564297914505 0.304114162921906
-0.0350500006899238 0.0404499965831637 0.00564999974519014 16 0.00520519120618701 0.169386848807335 0.0919244736433029 0.192792907357216
-0.0322500006482005 0.0404499965831637 0.00564999974519014 16 -0.00965706165879965 0.152512863278389 0.102956466376781 0.184264659881592
-0.0294500006064773 0.0404499965831637 0.00564999974519014 16 -0.0414593443274498 0.114708386361599 0.124517805874348 0.174303114414215
-0.026650000564754 0.0404499965831637 0.00564999974519014 16 -0.0766079649329185 0.063297726213932 0.143984735012054 0.174948528409004
-0.0238500005230308 0.0404499965831637 0.00564999974519014 16 -0.104353815317154 0.00767833832651377 0.152124091982841 0.184635892510414
-0.0210500004813075 0.0404499965831637 0.00564999974519014 16 -0.119105681777 -0.047395084053278 0.148133218288422 0.195897698402405
-0.0182500004395843 0.0404499965831637 0.00564999974519014 16 -0.117900654673576 -0.0963031649589539 0.131414726376534 0.201108664274216
-0.015450000397861 0.0404499965831637 0.00564999974519014 16 -0.100700512528419 -0.138403609395027 0.104476533830166 0.200528055429459
-0.0126500003561378 0.0404499965831637 0.00564999974519014 16 -0.0676944106817245 -0.169168442487717 0.0620188862085342 0.192475557327271
-0.0098500003144145 0.0404499965831637 0.00564999974519014 16 -0.0234139319509268 -0.18686605989933 0.00634022289887071 0.188433900475502
-0.00705000027269125 0.0404499965831637 0.00564999974519014 16 0.0249286610633135 -0.1867536008358 -0.0572981461882591 0.19692999124527
-0.004250000230968 0.0404499965831637 0.00564999974519014 16 0.0680695623159409 -0.166220262646675 -0.113206177949905 0.21231646835804
-0.00145000018924474 0.0404499965831637 0.00564999974519014 16 0.0967844873666763 -0.125716552138329 -0.149041220545769 0.217681363224983
0.0013499998524785 0.0404499965831637 0.00564999974519014 16 0.108363449573517 -0.0659758150577545 -0.159098908305168 0.203489318490028
0.00414999989420176 0.0404499965831637 0.00564999974519014 16 0.104176700115204 0.00458689965307713 -0.151376500725746 0.183816939592361
0.006949999935925 0.0404499965831637 0.00564999974519014 16 0.0881097242236137 0.0786513388156891 -0.129948928952217 0.175602048635483
0.00974999997764826 0.0404499965831637 0.00564999974519014 16 0.0617339089512825 0.142887637019157 -0.101074025034904 0.185590714216232
0.0125500000193715 0.0404499965831637 0.00564999974519014 16 0.021778542548418 0.18858391046524 -0.0535700209438801 0.197250962257385
0.0153500000610948 0.0404499965831637 0.00564999974519014 16 -0.0284983050078154 0.209711477160454 0.00649869535118341 0.211738735437393
0.018150000102818 0.0404499965831637 0.00564999974519014 16 -0.0840137898921967 0.206367403268814 0.0798963904380798 0.236704990267754
0.0209500001445413 0.0404499965831637 0.00564999974519014 16 -0.129615738987923 0.182170644402504 0.14567656815052 0.266848355531693
0.0237500001862645 0.0404499965831637 0.00564999974519014 16 -0.157826840877533 0.143174812197685 0.197125151753426 0.2902871966362
0.0265500002279878 0.0404499965831637 0.00564999974519014 16 -0.164099633693695 0.0934589579701424 0.222964748740196 0.29219263792038
0.029350000269711 0.0404499965831637 0.00564999974519014 16 -0.155838549137115 0.0421347357332706 0.228525653481483 0.27979451417923
0.0321500003114343 0.0404499965831637 0.00564999974519014 16 -0.142712935805321 -0.0014448290457949 0.221733063459396 0.263694196939468
0.0349500003531575 0.0404499965831637 0.00564999974519014 16 -0.135686933994293 -0.0210282430052757 0.216224431991577 0.256136953830719
-0.0350500006899238 0.0376499965414405 0.00564999974519014 16 0.0187346190214157 0.120577596127987 0.0585683546960354 0.135352119803429
-0.0322500006482005 0.0376499965414405 0.00564999974519014 16 0.0082630617544055 0.107261687517166 0.067385695874691 0.12694163620472
-0.0294500006064773 0.0376499965414405 0.00564999974519014 16 -0.0144193535670638 0.077542632818222 0.0858824849128723 0.116604365408421
-0.026650000564754 0.0376499965414405 0.00564999974519014 16 -0.0396757237613201 0.0375142768025398 0.102601259946823 0.116226084530354
-0.0238500005230308 0.0376499965414405 0.00564999974519014 16 -0.0603011809289455 -0.0061844689771533 0.110444895923138 0.125986322760582
-0.0210500004813075 0.0376499965414405 0.00564999974519014 16 -0.0713283121585846 -0.0493110455572605 0.106508269906044 0.137343809008598
-0.0182500004395843 0.0376499965414405 0.00564999974519014 16 -0.0706952959299088 -0.0882027372717857 0.0922324061393738 0.14589162170887
-0.015450000397861 0.0376499965414405 0.00564999974519014 16 -0.057216715067625 -0.120486795902252 0.069347620010376 0.150332674384117
-0.0126500003561378 0.0376499965414405 0.00564999974519014 16 -0.032547153532505 -0.143215581774712 0.0361254923045635 0.151245072484016
-0.0098500003144145 0.0376499965414405 0.00564999974519014 16 1.10804721771274e-05 -0.153683468699455 -0.00661437166854739 0.153825744986534
-0.00705000027269125 0.0376499965414405 0.00564999974519014 16 0.0327664352953434 -0.150533005595207 -0.052160382270813 0.162648499011993
-0.004250000230968 0.0376499965414405 0.00564999974519014 16 0.0600084029138088 -0.131721496582031 -0.0904798060655594 0.170699030160904