TITLE="DynamicStudio Exported Data"
VARIABLES= "X (m)[m]" "Y (m)[m]" "Z (m)[m]" "Status[-]" "U[-]" "V[-]" "W[-]" "Length[-]"
ZONE T="DynamicStudio Data" F=POINT
-0.0350500006899238 0.0600499968752265 0.00564999974519014 16 0.277635782957077 0.00451345462352037 -0.396285086870193 0.483884155750275
-0.0322500006482005 0.0600499968752265 0.00564999974519014 16 0.269734710454941 -0.0104573061689734 -0.386000275611877 0.471022695302963
-0.0294500006064773 0.0600499968752265 0.00564999974519014 16 0.256066769361496 -0.047961313277483 -0.367189705371857 0.450220793485641
-0.026650000564754 0.0600499968752265 0.00564999974519014 16 0.235530450940132 -0.099602222442627 -0.342953681945801 0.42779952287674
-0.0238500005230308 0.0600499968752265 0.00564999974519014 16 0.211801692843437 -0.16637459397316 -0.31904348731041 0.417527496814728
-0.0210500004813075 0.0600499968752265 0.00564999974519014 16 0.166769459843636 -0.239454820752144 -0.274474442005157 0.400608122348785
-0.0182500004395843 0.0600499968752265 0.00564999974519014 16 0.092772550880909 -0.304184943437576 -0.196875348687172 0.374025583267212
-0.015450000397861 0.0600499968752265 0.00564999974519014 16 -0.0133668379858136 -0.333210945129395 -0.0723880082368851 0.341245114803314
-0.0126500003561378 0.0600499968752265 0.00564999974519014 16 -0.132939323782921 -0.306047588586807 0.0790525823831558 0.342910051345825
-0.0098500003144145 0.0600499968752265 0.00564999974519014 16 -0.239074513316154 -0.216009721159935 0.230638325214386 0.396245956420898
-0.00705000027269125 0.0600499968752265 0.00564999974519014 16 -0.306020826101303 -0.0768734142184258 0.340017527341843 0.463864415884018
-0.004250000230968 0.0600499968752265 0.00564999974519014 16 -0.31911239027977 0.0831779390573502 0.384471893310547 0.506527304649353
-0.00145000018924474 0.0600499968752265 0.00564999974519014 16 -0.27500319480896 0.227875605225563 0.353081524372101 0.50221574306488
0.0013499998524785 0.0600499968752265 0.00564999974519014 16 -0.186218112707138 0.324829518795013 0.26164972782135 0.456784397363663
0.00414999989420176 0.0600499968752265 0.00564999974519014 16 -0.0709950178861618 0.355346620082855 0.137408271431923 0.387546837329865
0.006949999935925 0.0600499968752265 0.00564999974519014 16 0.0406267158687115 0.322291433811188 0.0122642535716295 0.325073391199112
0.00974999997764826 0.0600499968752265 0.00564999974519014 16 0.128322273492813 0.247478902339935 -0.0877407342195511 0.292251348495483
0.0125500000193715 0.0600499968752265 0.00564999974519014 16 0.180252805352211 0.157916694879532 -0.154476702213287 0.28511717915535
0.0153500000610948 0.0600499968752265 0.00564999974519014 16 0.202736645936966 0.0769422426819801 -0.190953001379967 0.288938224315643
0.018150000102818 0.0600499968752265 0.00564999974519014 16 0.209647357463837 0.00901333056390285 -0.212329655885696 0.29852494597435
0.0209500001445413 0.0600499968752265 0.00564999974519014 16 0.211397066712379 -0.0475599057972431 -0.23417092859745 0.319040268659592
0.0237500001862645 0.0600499968752265 0.00564999974519014 16 0.206245094537735 -0.107809498906136 -0.252172738313675 0.343148678541183
0.0265500002279878 0.0600499968752265 0.00564999974519014 16 0.184938102960587 -0.176406934857368 -0.26028698682785 0.364788740873337
0.029350000269711 0.0600499968752265 0.00564999974519014 16 0.143676370382309 -0.253221690654755 -0.239086538553238 0.376731336116791
0.0321500003114343 0.0600499968752265 0.00564999974519014 16 0.0984689146280289 -0.318018585443497 -0.208124071359634 0.392616331577301
0.0349500003531575 0.0600499968752265 0.00564999974519014 16 0.074119359254837 -0.349804162979126 -0.185968652367592 0.403039664030075
-0.0350500006899238 0.0572499968335032 0.00564999974519014 16 0.238848954439163 0.00188720296137035 -0.352256029844284 0.425601571798325
-0.0322500006482005 0.0572499968335032 0.00564999974519014 16 0.230512902140617 -0.0143455937504768 -0.342347472906113 0.412969470024109
-0.0294500006064773 0.0572499968335032 0.00564999974519014 16 0.216536089777946 -0.0534473434090614 -0.325059026479721 0.394218057394028
-0.026650000564754 0.0572499968335032 0.00564999974519014 16 0.197700425982475 -0.107206337153912 -0.303228259086609 0.377526193857193
-0.0238500005230308 0.0572499968335032 0.00564999974519014 16 0.178531587123871 -0.176720485091209 -0.284393340349197 0.379451215267181
-0.0210500004813075 0.0572499968335032 0.00564999974519014 16 0.14288067817688 -0.254005759954453 -0.249370768666267 0.383561730384827
-0.0182500004395843 0.0572499968335032 0.00564999974519014 16 0.0839604139328003 -0.323685348033905 -0.187041595578194 0.38315287232399
-0.015450000397861 0.0572499968335032 0.00564999974519014 16 -0.00357132009230554 -0.356323063373566 -0.082493782043457 0.36576509475708
-0.0126500003561378 0.0572499968335032 0.00564999974519014 16 -0.103402405977249 -0.329699724912643 0.0488569438457489 0.348971307277679
-0.0098500003144145 0.0572499968335032 0.00564999974519014 16 -0.195033967494965 -0.234454914927483 0.183918416500092 0.356136679649353
-0.00705000027269125 0.0572499968335032 0.00564999974519014 16 -0.2553671002388 -0.0856568589806557 0.286507070064545 0.39323753118515
-0.004250000230968 0.0572499968335032 0.00564999974519014 16 -0.271742850542068 0.0878176987171173 0.333312124013901 0.438922643661499
-0.00145000018924474 0.0572499968335032 0.00564999974519014 16 -0.238599747419357 0.244754046201706 0.313510656356812 0.463813871145248
0.0013499998524785 0.0572499968335032 0.00564999974519014 16 -0.164564475417137 0.350620955228806 0.236921206116676 0.454035431146622
0.00414999989420176 0.0572499968335032 0.00564999974519014 16 -0.0662196055054665 0.383703202009201 0.129325911402702 0.410290628671646
0.006949999935925 0.0572499968335032 0.00564999974519014 16 0.0308159701526165 0.347428470849991 0.0176502279937267 0.349238723516464
0.00974999997764826 0.0572499968335032 0.00564999974519014 16 0.105385646224022 0.265242636203766 -0.0707502290606499 0.294049978256226
0.0125500000193715 0.0572499968335032 0.00564999974519014 16 0.148972079157829 0.167269110679626 -0.129253804683685 0.258608162403107
0.0153500000610948 0.0572499968335032 0.00564999974519014 16 0.165770441293716 0.0796507596969604 -0.158548071980476 0.242820039391518
0.018150000102818 0.0572499968335032 0.00564999974519014 16 0.171177864074707 0.00832334160804749 -0.175494432449341 0.245294585824013
0.0209500001445413 0.0572499968335032 0.00564999974519014 16 0.172960817813873 -0.0496891513466835 -0.194176599383354 0.26474329829216
0.0237500001862645 0.0572499968335032 0.00564999974519014 16 0.170769184827805 -0.111209861934185 -0.213486179709435 0.295137405395508
0.0265500002279878 0.0572499968335032 0.00564999974519014 16 0.154112085700035 -0.183638393878937 -0.225327774882317 0.329007893800735
0.029350000269711 0.0572499968335032 0.00564999974519014 16 0.12034310400486 -0.265943944454193 -0.21233606338501 0.360964328050613
0.0321500003114343 0.0572499968335032 0.00564999974519014 16 0.0820632055401802 -0.33666130900383 -0.188566267490387 0.39450278878212
0.0349500003531575 0.0572499968335032 0.00564999974519014 16 0.061649464070797 -0.370556175708771 -0.171010628342628 0.412743479013443
-0.0350500006899238 0.05444999679178 0.00564999974519014 16 0.143317654728889 -0.00409770617261529 -0.250151634216309 0.288327217102051
-0.0322500006482005 0.05444999679178 0.00564999974519014 16 0.135977283120155 -0.0213564988225698 -0.240837842226028 0.277396440505981
-0.0294500006064773 0.05444999679178 0.00564999974519014 16 0.123980544507504 -0.0629696846008301 -0.226298809051514 0.265607804059982
-0.026650000564754 0.05444999679178 0.00564999974519014 16 0.109750792384148 -0.120331764221191 -0.209456130862236 0.265324026346207
-0.0238500005230308 0.05444999679178 0.00564999974519014 16 0.100532934069633 -0.195056438446045 -0.201622560620308 0.298002600669861
-0.0210500004813075 0.05444999679178 0.00564999974519014 16 0.0845291018486023 -0.278860598802567 -0.187405183911324 0.346452176570892
-0.0182500004395843 0.05444999679178 0.00564999974519014 16 0.0591197162866592 -0.355820864439011 -0.15917631983757 0.394259721040726
-0.015450000397861 0.05444999679178 0.00564999974519014 16 0.015312822535634 -0.39291387796402 -0.0999460816383362 0.405715435743332
-0.0126500003561378 0.05444999679178 0.00564999974519014 16 -0.037545770406723 -0.366338014602661 -0.0166417639702559 0.368632853031158
-0.0098500003144145 0.05444999679178 0.00564999974519014 16 -0.0930856466293335 -0.262560993432999 0.0785872414708138 0.289446324110031
-0.00705000027269125 0.05444999679178 0.00564999974519014 16 -0.13557106256485 -0.0993359163403511 0.16095007956028 0.232705965638161
-0.004250000230968 0.05444999679178 0.00564999974519014 16 -0.15662182867527 0.0942943394184113 0.209635645151138 0.278152704238892
-0.00145000018924474 0.05444999679178 0.00564999974519014 16 -0.146811872720718 0.269373178482056 0.213202655315399 0.373592048883438
0.0013499998524785 0.05444999679178 0.00564999974519014 16 -0.107693947851658 0.389322489500046 0.171478644013405 0.438833594322205
0.00414999989420176 0.05444999679178 0.00564999974519014 16 -0.0500489436089993 0.427731066942215 0.104567795991898 0.443162709474564
0.006949999935925 0.05444999679178 0.00564999974519014 16 0.00971369259059429 0.388364553451538 0.0291402395814657 0.389577388763428
0.00974999997764826 0.05444999679178 0.00564999974519014 16 0.0526126697659492 0.295806348323822 -0.0278706327080727 0.301738739013672
0.0125500000193715 0.05444999679178 0.00564999974519014 16 0.0764458328485489 0.184439405798912 -0.0641036927700043 0.209692969918251
0.0153500000610948 0.05444999679178 0.00564999974519014 16 0.0814593732357025 0.0855220481753349 -0.0756905525922775 0.140280827879906
0.018150000102818 0.05444999679178 0.00564999974519014 16 0.0838774293661118 0.00732872122898698 -0.0826946198940277 0.118014976382256
0.0209500001445413 0.05444999679178 0.00564999974519014 16 0.0855028852820396 -0.0544846132397652 -0.0953187271952629 0.139158099889755
0.0237500001862645 0.05444999679178 0.00564999974519014 16 0.0880983546376228 -0.119651056826115 -0.116737276315689 0.188958421349525
0.0265500002279878 0.05444999679178 0.00564999974519014 16 0.0805208459496498 -0.198657497763634 -0.13650768995285 0.254131376743317
0.029350000269711 0.05444999679178 0.00564999974519014 16 0.062970444560051 -0.28917720913887 -0.14062374830246 0.327664107084274
0.0321500003114343 0.05444999679178 0.00564999974519014 16 0.0413272529840469 -0.367894798517227 -0.133989095687866 0.393710047006607
0.0349500003531575 0.05444999679178 0.00564999974519014 16 0.0300623271614313 -0.404943913221359 -0.126201018691063 0.425217598676682
-0.0350500006899238 0.0516499967500567 0.00564999974519014 16 0.0212292019277811 -0.00977873243391514 -0.105221934616566 0.107786633074284
-0.0322500006482005 0.0516499967500567 0.00564999974519014 16 0.0149077698588371 -0.028838699683547 -0.0985972508788109 0.103804290294647
-0.0294500006064773 0.0516499967500567 0.00564999974519014 16 0.00632869265973568 -0.0739260613918304 -0.0899101495742798 0.116571649909019
-0.026650000564754 0.0516499967500567 0.00564999974519014 16 -0.000443286611698568 -0.133947357535362 -0.0826585292816162 0.157399237155914
-0.0238500005230308 0.0516499967500567 0.00564999974519014 16 0.00360245699994266 -0.209328308701515 -0.0893051475286484 0.227610915899277
-0.0210500004813075 0.0516499967500567 0.00564999974519014 16 0.0122748985886574 -0.290802985429764 -0.100961424410343 0.308075070381165
-0.0182500004395843 0.0516499967500567 0.00564999974519014 16 0.0262731127440929 -0.364538878202438 -0.113836660981178 0.382802367210388
-0.015450000397861 0.0516499967500567 0.00564999974519014 16 0.0344350300729275 -0.39821657538414 -0.111461587250233 0.414952874183655
-0.0126500003561378 0.0516499967500567 0.00564999974519014 16 0.0375287979841232 -0.370513796806335 -0.0906666666269302 0.38328754901886
-0.0098500003144145 0.0516499967500567 0.00564999974519014 16 0.0278953220695257 -0.265462875366211 -0.0495435781776905 0.271483421325684
-0.00705000027269125 0.0516499967500567 0.00564999974519014 16 0.010788582265377 -0.101737529039383 0.00191469222772866 0.1023258715868
-0.004250000230968 0.0516499967500567 0.00564999974519014 16 -0.0112594831734896 0.0948465764522552 0.0492008663713932 0.10744009912014
-0.00145000018924474 0.0516499967500567 0.00564999974519014 16 -0.0270170979201794 0.273078858852386 0.0797661244869232 0.285770237445831
0.0013499998524785 0.0516499967500567 0.00564999974519014 16 -0.0314403958618641 0.398245692253113 0.0850807577371597 0.408444434404373
0.00414999989420176 0.0516499967500567 0.00564999974519014 16 -0.0263601243495941 0.441051095724106 0.0742851793766022 0.448039293289185
0.006949999935925 0.0516499967500567 0.00564999974519014 16 -0.0162081085145473 0.404754012823105 0.051459476351738 0.40833392739296
0.00974999997764826 0.0516499967500567 0.00564999974519014 16 -0.0134691437706351 0.311631172895432 0.0373510234057903 0.314150452613831
0.0125500000193715 0.0516499967500567 0.00564999974519014 16 -0.0146628059446812 0.196708843111992 0.0297060608863831 0.1994788646698
0.0153500000610948 0.0516499967500567 0.00564999974519014 16 -0.0231533441692591 0.0922082215547562 0.0372478701174259 0.102106988430023
0.018150000102818 0.0516499967500567 0.00564999974519014 16 -0.0243189670145512 0.00848545506596565 0.0393559038639069 0.0470351167023182
0.0209500001445413 0.0516499967500567 0.00564999974519014 16 -0.0221930984407663 -0.0582997910678387 0.0321397930383682 0.0701738223433495
0.0237500001862645 0.0516499967500567 0.00564999974519014 16 -0.0133335459977388 -0.126817345619202 0.00775060104206204 0.127751693129539
0.0265500002279878 0.0516499967500567 0.00564999974519014 16 -0.00832601636648178 -0.207757875323296 -0.0214479323476553 0.209027916193008
0.029350000269711 0.0516499967500567 0.00564999974519014 16 -0.0051350686699152 -0.298246443271637 -0.0458260998129845 0.301790207624435
0.0321500003114343 0.0516499967500567 0.00564999974519014 16 -0.00492496369406581 -0.376176506280899 -0.0605555288493633 0.381051152944565
0.0349500003531575 0.0516499967500567 0.00564999974519014 16 -0.00416747899726033 -0.412165820598602 -0.0654571056365967 0.417351961135864
-0.0350500006899238 0.0488499967083335 0.00564999974519014 16 -0.0888646394014359 -0.0145195908844471 0.0286018196493387 0.0944764912128448
-0.0322500006482005 0.0488499967083335 0.00564999974519014 16 -0.0930123850703239 -0.0341870673000813 0.0332336686551571 0.104520507156849
-0.0294500006064773 0.0488499967083335 0.00564999974519014 16 -0.0968576893210411 -0.0799813643097878 0.0362213812768459 0.1307303160429
-0.026650000564754 0.0488499967083335 0.00564999974519014 16 -0.0949648544192314 -0.138816356658936 0.0327084548771381 0.171342194080353
-0.0238500005230308 0.0488499967083335 0.00564999974519014 16 -0.0792485401034355 -0.208504840731621 0.0124424379318953 0.22340415418148
-0.0210500004813075 0.0488499967083335 0.00564999974519014 16 -0.0500532574951649 -0.278873711824417 -0.0221613720059395 0.284195363521576
-0.0182500004395843 0.0488499967083335 0.00564999974519014 16 -0.00561207346618176 -0.339240610599518 -0.0679809525609016 0.346030473709106
-0.015450000397861 0.0488499967083335 0.00564999974519014 16 0.0438846684992313 -0.362171709537506 -0.111762292683125 0.381556063890457
-0.0126500003561378 0.0488499967083335 0.00564999974519014 16 0.0911624282598495 -0.332223147153854 -0.142297178506851 0.372734904289246
-0.0098500003144145 0.0488499967083335 0.00564999974519014 16 0.119835793972015 -0.235469490289688 -0.14746730029583 0.302577435970306
-0.00705000027269125 0.0488499967083335 0.00564999974519014 16 0.125951290130615 -0.089442290365696 -0.125879481434822 0.199271902441978
-0.004250000230968 0.0488499967083335 0.00564999974519014 16 0.107033759355545 0.0856035500764847 -0.0839583948254585 0.160727113485336
-0.00145000018924474 0.0488499967083335 0.00564999974519014 16 0.0736166313290596 0.245126992464066 -0.0351865105330944 0.258350044488907
0.0013499998524785 0.0488499967083335 0.00564999974519014 16 0.0342517159879208 0.361018031835556 0.00923954695463181 0.362756907939911
0.00414999989420176 0.0488499967083335 0.00564999974519014 16 -0.00449410360306501 0.405349433422089 0.0474796518683434 0.408145397901535
0.006949999935925 0.0488499967083335 0.00564999974519014 16 -0.0376185812056065 0.379844725131989 0.074925884604454 0.388987243175507
0.00974999997764826 0.0488499967083335 0.00564999974519014 16 -0.0687776505947113 0.299672812223434 0.102497220039368 0.324098497629166
0.0125500000193715 0.0488499967083335 0.00564999974519014 16 -0.09128038585186 0.195807471871376 0.123806647956371 0.248999521136284
0.0153500000610948 0.0488499967083335 0.00564999974519014 16 -0.109595164656639 0.0959364250302315 0.148737609386444 0.208177268505096
0.018150000102818 0.0488499967083335 0.00564999974519014 16 -0.113262712955475 0.011749105527997 0.15776053071022 0.194563284516335
0.0209500001445413 0.0488499967083335 0.00564999974519014 16 -0.109810061752796 -0.0586642436683178 0.152574777603149 0.196923345327377
0.0237500001862645 0.0488499967083335 0.00564999974519014 16 -0.0956536084413528 -0.128510624170303 0.123220451176167 0.202108576893806
0.0265500002279878 0.0488499967083335 0.00564999974519014 16 -0.0789884403347969 -0.204825907945633 0.0834005922079086 0.234837144613266
0.029350000269711 0.0488499967083335 0.00564999974519014 16 -0.0578945726156235 -0.284903466701508 0.0412780754268169 0.293642044067383
0.0321500003114343 0.0488499967083335 0.00564999974519014 16 -0.0385281927883625 -0.351018577814102 0.00831908639520407 0.353224694728851
0.0349500003531575 0.0488499967083335 0.00564999974519014 16 -0.0283117480576038 -0.381522357463837 -0.00617498066276312 0.382621198892593
-0.0350500006899238 0.0460499966666102 0.00564999974519014 16 -0.147488936781883 -0.0185365062206984 0.124250188469887 0.193738743662834
-0.0322500006482005 0.0460499966666102 0.00564999974519014 16 -0.149771019816399 -0.0379499942064285 0.124059334397316 0.198147118091583
-0.0294500006064773 0.0460499966666102 0.00564999974519014 16 -0.150101244449615 -0.081819087266922 0.118649892508984 0.208092629909515
-0.026650000564754 0.0460499966666102 0.00564999974519014 16 -0.141571968793869 -0.135667651891708 0.103287845849991 0.22162289917469
-0.0238500005230308 0.0460499966666102 0.00564999974519014 16 -0.118559591472149 -0.193847939372063 0.0723578706383705 0.23847234249115
-0.0210500004813075 0.0460499966666102 0.00564999974519014 16 -0.0787502452731133 -0.246297240257263 0.0246998351067305 0.259757608175278
-0.0182500004395843 0.0460499966666102 0.00564999974519014 16 -0.0224031470716 -0.285945266485214 -0.0362843871116638 0.289107501506805
-0.015450000397861 0.0460499966666102 0.00564999974519014 16 0.0427843406796455 -0.29393345117569 -0.101992562413216 0.314053922891617
-0.0126500003561378 0.0460499966666102 0.00564999974519014 16 0.106286518275738 -0.261929303407669 -0.157712638378143 0.323692858219147
-0.0098500003144145 0.0460499966666102 0.00564999974519014 16 0.150813415646553 -0.18093766272068 -0.186374396085739 0.300364017486572
-0.00705000027269125 0.0460499966666102 0.00564999974519014 16 0.168206185102463 -0.065308041870594 -0.181363642215729 0.255834400653839
-0.004250000230968 0.0460499966666102 0.00564999974519014 16 0.153129398822784 0.0709750279784203 -0.143586292862892 0.221592172980309
-0.00145000018924474 0.0460499966666102 0.00564999974519014 16 0.114170640707016 0.196176156401634 -0.0874423682689667 0.243240997195244
0.0013499998524785 0.0460499966666102 0.00564999974519014 16 0.0591747649013996 0.291430532932281 -0.0224501360207796 0.2982237637043
0.00414999989420176 0.0460499966666102 0.00564999974519014 16 -0.000113218105980195 0.333797961473465 0.0429246015846729 0.33654659986496
0.006949999935925 0.0460499966666102 0.00564999974519014 16 -0.0547325499355793 0.322938919067383 0.100631862878799 0.342654287815094
0.00974999997764826 0.0460499966666102 0.00564999974519014 16 -0.101541712880135 0.265211850404739 0.153272569179535 0.32270810008049
0.0125500000193715 0.0460499966666102 0.00564999974519014 16 -0.13402558863163 0.183878168463707 0.191458582878113 0.297372549772263
0.0153500000610948 0.0460499966666102 0.00564999974519014 16 -0.155469298362732 0.0979558005928993 0.22336533665657 0.28923711180687
0.018150000102818 0.0460499966666102 0.00564999974519014 16 -0.15876604616642 0.0190647076815367 0.232171669602394 0.281910985708237
0.0209500001445413 0.0460499966666102 0.00564999974519014 16 -0.151481449604034 -0.0515115968883038 0.223346441984177 0.274742990732193
0.0237500001862645 0.0460499966666102 0.00564999974519014 16 -0.13143365085125 -0.11918717622757 0.188407421112061 0.258800566196442
0.0265500002279878 0.0460499966666102 0.00564999974519014 16 -0.104819431900978 -0.185219675302505 0.140314608812332 0.254914939403534
0.029350000269711 0.0460499966666102 0.00564999974519014 16 -0.0716620534658432 -0.24795201420784 0.0877284109592438 0.272602140903473
0.0321500003114343 0.0460499966666102 0.00564999974519014 16 -0.0402038842439651 -0.296024978160858 0.0440325066447258 0.301970213651657
0.0349500003531575 0.0460499966666102 0.00564999974519014 16 -0.0244379173964262 -0.317911088466644 0.0247133783996105 0.319805294275284
-0.0350500006899238 0.043249996624887 0.00564999974519014 16 -0.151231840252876 -0.0228615943342447 0.1605294495821 0.221728280186653
-0.0322500006482005 0.043249996624887 0.00564999974519014 16 -0.152566954493523 -0.0403047055006027 0.157821804285049 0.223178997635841
-0.0294500006064773 0.043249996624887 0.00564999974519014 16 -0.151779800653458 -0.0787432566285133 0.147455021739006 0.225788816809654
-0.026650000564754 0.043249996624887 0.00564999974519014 16 -0.141208305954933 -0.124431431293488 0.125115022063255 0.226001620292664
-0.0238500005230308 0.043249996624887 0.00564999974519014 16 -0.117035008966923 -0.169920489192009 0.0889200493693352 0.224670737981796
-0.0210500004813075 0.043249996624887 0.00564999974519014 16 -0.0775052607059479 -0.206516847014427 0.0378879383206367 0.223811909556389
-0.0182500004395843 0.043249996624887 0.00564999974519014 16 -0.0250310525298119 -0.229298263788223 -0.0234056860208511 0.231844931840897
-0.015450000397861 0.043249996624887 0.00564999974519014 16 0.0340982489287853 -0.226332694292068 -0.087776318192482 0.245140492916107
-0.0126500003561378 0.043249996624887 0.00564999974519014 16 0.0904897600412369 -0.194170787930489 -0.141850084066391 0.256928265094757
-0.0098500003144145 0.043249996624887 0.00564999974519014 16 0.129983261227608 -0.129106625914574 -0.169573709368706 0.249638557434082
-0.00705000027269125 0.043249996624887 0.00564999974519014 16 0.145256951451302 -0.0424889512360096 -0.165748625993729 0.224449336528778
-0.004250000230968 0.043249996624887 0.00564999974519014 16 0.130524873733521 0.0563733838498592 -0.129291772842407 0.192174568772316
-0.00145000018924474 0.043249996624887 0.00564999974519014 16 0.0934593006968498 0.148072838783264 -0.074634850025177 0.190343275666237
0.0013499998524785 0.043249996624887 0.00564999974519014 16 0.0403650812804699 0.221441030502319 -0.00921001471579075 0.225278258323669
0.00414999989420176 0.043249996624887 0.00564999974519014 16 -0.0159978829324245 0.259952396154404 0.0583780966699123 0.266906678676605
0.006949999935925 0.043249996624887 0.00564999974519014 16 -0.0684777945280075 0.261357843875885 0.121154680848122 0.296100646257401
0.00974999997764826 0.043249996624887 0.00564999974519014 16 -0.112287893891335 0.225612595677376 0.179093688726425 0.309166878461838
0.0125500000193715 0.043249996624887 0.00564999974519014 16 -0.14256939291954 0.167697459459305 0.220996871590614 0.311910390853882
0.0153500000610948 0.043249996624887 0.00564999974519014 16 -0.160514712333679 0.0989617705345154 0.25187349319458 0.314640522003174
0.018150000102818 0.043249996624887 0.00564999974519014 16 -0.160809949040413 0.0293655283749104 0.257367581129074 0.304893851280212
0.0209500001445413 0.043249996624887 0.00564999974519014 16 -0.14933568239212 -0.0371764376759529 0.243226647377014 0.287823617458344
0.0237500001862645 0.043249996624887 0.00564999974519014 16 -0.125037521123886 -0.100210584700108 0.203293979167938 0.258853226900101
0.0265500002279878 0.043249996624887 0.00564999974519014 16 -0.0928725674748421 -0.15624412894249 0.149321869015694 0.235232993960381
0.029350000269711 0.043249996624887 0.00564999974519014 16 -0.055215910077095 -0.203813269734383 0.0928283557295799 0.23066371679306
0.0321500003114343 0.043249996624887 0.00564999974519014 16 -0.0207089111208916 -0.236659422516823 0.0468425080180168 0.242137908935547
0.0349500003531575 0.043249996624887 0.00564999974519014 16 -0.00442833732813597 -0.251225769519806 0.0275516547262669 0.252770841121674
-0.0350500006899238 0.0404499965831637 0.00564999974519014 16 -0.121077165007591 -0.0273726861923933 0.165115371346474 0.206572100520134
-0.0322500006482005 0.0404499965831637 0.00564999974519014 16 -0.121869035065174 -0.0420805439352989 0.158953323960304 0.204668000340462
-0.0294500006064773 0.0404499965831637 0.00564999974519014 16 -0.12063667178154 -0.0739357024431229 0.143210530281067 0.20131804049015
-0.026650000564754 0.0404499965831637 0.00564999974519014 16 -0.110624112188816 -0.111148610711098 0.115596391260624 0.194818466901779
-0.0238500005230308 0.0404499965831637 0.00564999974519014 16 -0.0886997207999229 -0.145814329385757 0.0774380564689636 0.18741962313652
-0.0210500004813075 0.0404499965831637 0.00564999974519014 16 -0.055609155446291 -0.170805126428604 0.0298861600458622 0.182098746299744
-0.0182500004395843 0.0404499965831637 0.00564999974519014 16 -0.0145858665928245 -0.182381704449654 -0.0226224567741156 0.184357300400734
-0.015450000397861 0.0404499965831637 0.00564999974519014 16 0.0281979162245989 -0.17322313785553 -0.0738867670297623 0.190422236919403
-0.0126500003561378 0.0404499965831637 0.00564999974519014 16 0.0669994205236435 -0.14228755235672 -0.114655613899231 0.194629341363907
-0.0098500003144145 0.0404499965831637 0.00564999974519014 16 0.0914360359311104 -0.0892890617251396 -0.131151720881462 0.183122515678406
-0.00705000027269125 0.0404499965831637 0.00564999974519014 16 0.0971415787935257 -0.0235914997756481 -0.120917558670044 0.15688881278038
-0.004250000230968 0.0404499965831637 0.00564999974519014 16 0.0796073898673058 0.0477691106498241 -0.083626501262188 0.12495045363903
-0.00145000018924474 0.0404499965831637 0.00564999974519014 16 0.0459262542426586 0.113998211920261 -0.0325121842324734 0.127129286527634
0.0013499998524785 0.0404499965831637 0.00564999974519014 16 0.00144412787631154 0.169230803847313 0.0259580481797457 0.171216160058975
0.00414999989420176 0.0404499965831637 0.00564999974519014 16 -0.0427683815360069 0.203039482235909 0.0852130204439163 0.224310994148254
0.006949999935925 0.0404499965831637 0.00564999974519014 16 -0.0825185850262642 0.211990058422089 0.140095576643944 0.267162650823593
0.00974999997764826 0.0404499965831637 0.00564999974519014 16 -0.114426679909229 0.193283274769783 0.190155982971191 0.294297784566879
0.0125500000193715 0.0404499965831637 0.00564999974519014 16 -0.136231407523155 0.154672369360924 0.225204855203629 0.305286377668381
0.0153500000610948 0.0404499965831637 0.00564999974519014 16 -0.147244334220886 0.102349266409874 0.246731549501419 0.305012673139572
0.018150000102818 0.0404499965831637 0.00564999974519014 16 -0.143066897988319 0.0433864332735538 0.244664177298546 0.286724746227264
0.0209500001445413 0.0404499965831637 0.00564999974519014 16 -0.127380713820457 -0.0167530309408903 0.224220603704453 0.258420944213867
0.0237500001862645 0.0404499965831637 0.00564999974519014 16 -0.100410163402557 -0.0743121206760406 0.183318495750427 0.221833646297455
0.0265500002279878 0.0404499965831637 0.00564999974519014 16 -0.0664199069142342 -0.123053401708603 0.130683898925781 0.191394940018654
0.029350000269711 0.0404499965831637 0.00564999974519014 16 -0.0288906432688236 -0.16107802093029 0.0770406424999237 0.180875808000565
0.0321500003114343 0.0404499965831637 0.00564999974519014 16 0.00411415053531528 -0.185009196400642 0.0337996296584606 0.188116312026978
0.0349500003531575 0.0404499965831637 0.00564999974519014 16 0.0193801894783974 -0.195021107792854 0.0157468356192112 0.196613296866417
-0.0350500006899238 0.0376499965414405 0.00564999974519014 16 -0.0850058197975159 -0.0323035046458244 0.153222680091858 0.178176015615463
-0.0322500006482005 0.0376499965414405 0.00564999974519014 16 -0.0854089111089706 -0.0438698828220367 0.14599235355854 0.174736991524696
-0.0294500006064773 0.0376499965414405 0.00564999974519014 16 -0.0838323533535004 -0.0686253905296326 0.128326237201691 0.167943239212036
-0.026650000564754 0.0376499965414405 0.00564999974519014 16 -0.0751344710588455 -0.0976542979478836 0.0990076139569283 0.15806345641613
-0.0238500005230308 0.0376499965414405 0.00564999974519014 16 -0.0565051585435867 -0.124039553105831 0.0614750236272812 0.149525314569473
-0.0210500004813075 0.0376499965414405 0.00564999974519014 16 -0.0304147657006979 -0.142185345292091 0.0184563789516687 0.146568655967712
-0.0182500004395843 0.0376499965414405 0.00564999974519014 16 8.46285038278438e-05 -0.148523211479187 -0.0251740552484989 0.150641575455666
-0.015450000397861 0.0376499965414405 0.00564999974519014 16 0.0283035319298506 -0.137848004698753 -0.0632652267813683 0.154290795326233
-0.0126500003561378 0.0376499965414405 0.00564999974519014 16 0.0511910915374756 -0.109667867422104 -0.0894821584224701 0.150514543056488
-0.0098500003144145 0.0376499965414405 0.00564999974519014 16 0.0614784955978394 -0.065231516957283 -0.0942639485001564 0.130078613758087
-0.00705000027269125 0.0376499965414405 0.00564999974519014 16 0.0572118908166885 -0.012260502204299 -0.0775458142161369 0.0971435755491257