TITLE="DynamicStudio Exported Data"
VARIABLES= "X (m)[m]" "Y (m)[m]" "Z (m)[m]" "Status[-]" "U[-]" "V[-]" "W[-]" "Length[-]"
ZONE T="DynamicStudio Data" F=POINT
-0.0350500006899238 0.0600499968752265 0.00564999974519014 16 -0.236208990216255 -0.399503290653229 0.262047857046127 0.532979011535645
-0.0322500006482005 0.0600499968752265 0.00564999974519014 16 -0.260524243116379 -0.347539246082306 0.292556017637253 0.523684501647949
-0.0294500006064773 0.0600499968752265 0.00564999974519014 16 -0.303846031427383 -0.227257072925568 0.347446292638779 0.514477550983429
-0.026650000564754 0.0600499968752265 0.00564999974519014 16 -0.323243618011475 -0.0654851123690605 0.370621711015701 0.496120125055313
-0.0238500005230308 0.0600499968752265 0.00564999974519014 16 -0.299604803323746 0.102833762764931 0.342806875705719 0.466748744249344
-0.0210500004813075 0.0600499968752265 0.00564999974519014 16 -0.228303045034409 0.239629492163658 0.259122639894485 0.420344054698944
-0.0182500004395843 0.0600499968752265 0.00564999974519014 16 -0.128862679004669 0.32137605547905 0.149210542440414 0.377030432224274
-0.015450000397861 0.0600499968752265 0.00564999974519014 16 -0.0245986953377724 0.339680761098862 0.0362254269421101 0.342491447925568
-0.0126500003561378 0.0600499968752265 0.00564999974519014 16 0.0670132040977478 0.308419704437256 -0.0605490058660507 0.321371555328369
-0.0098500003144145 0.0600499968752265 0.00564999974519014 16 0.135442554950714 0.24441309273243 -0.133627846837044 0.309739977121353
-0.00705000027269125 0.0600499968752265 0.00564999974519014 16 0.181956857442856 0.170647740364075 -0.180496901273727 0.307909220457077
-0.004250000230968 0.0600499968752265 0.00564999974519014 16 0.210658177733421 0.0965303331613541 -0.20796437561512 0.311358571052551
-0.00145000018924474 0.0600499968752265 0.00564999974519014 16 0.227769926190376 0.0269138403236866 -0.223542988300323 0.320273250341415
0.0013499998524785 0.0600499968752265 0.00564999974519014 16 0.233780115842819 -0.0457587391138077 -0.234957665205002 0.334592461585999
0.00414999989420176 0.0600499968752265 0.00564999974519014 16 0.223811060190201 -0.128219738602638 -0.236436873674393 0.34990581870079
0.006949999935925 0.0600499968752265 0.00564999974519014 16 0.188821971416473 -0.222545936703682 -0.218269005417824 0.364447236061096
0.00974999997764826 0.0600499968752265 0.00564999974519014 16 0.121571011841297 -0.315168708562851 -0.163016006350517 0.375080049037933
0.0125500000193715 0.0600499968752265 0.00564999974519014 16 0.0241974722594023 -0.38135427236557 -0.0688991472125053 0.388283014297485
0.0153500000610948 0.0600499968752265 0.00564999974519014 16 -0.0931238755583763 -0.392914146184921 0.0612013265490532 0.408410549163818
0.018150000102818 0.0600499968752265 0.00564999974519014 16 -0.207821264863014 -0.330937713384628 0.19701686501503 0.437635809183121
0.0209500001445413 0.0600499968752265 0.00564999974519014 16 -0.294464647769928 -0.200618654489517 0.309731870889664 0.472113430500031
0.0237500001862645 0.0600499968752265 0.00564999974519014 16 -0.33024474978447 -0.0253792554140091 0.365665465593338 0.49337300658226
0.0265500002279878 0.0600499968752265 0.00564999974519014 16 -0.308570861816406 0.151945486664772 0.359638303518295 0.497637540102005
0.029350000269711 0.0600499968752265 0.00564999974519014 16 -0.247473955154419 0.298753678798676 0.307980597019196 0.495327323675156
0.0321500003114343 0.0600499968752265 0.00564999974519014 16 -0.180883586406708 0.391890555620193 0.247908622026443 0.497750699520111
0.0349500003531575 0.0600499968752265 0.00564999974519014 16 -0.147699013352394 0.429632306098938 0.216816395521164 0.503396689891815
-0.0350500006899238 0.0572499968335032 0.00564999974519014 16 -0.192118734121323 -0.429845422506332 0.223903581500053 0.521353542804718
-0.0322500006482005 0.0572499968335032 0.00564999974519014 16 -0.212380558252335 -0.374847561120987 0.249607548117638 0.497915774583817
-0.0294500006064773 0.0572499968335032 0.00564999974519014 16 -0.248816952109337 -0.245736747980118 0.297852843999863 0.459361225366592
-0.026650000564754 0.0572499968335032 0.00564999974519014 16 -0.265871226787567 -0.0703139379620552 0.319329500198364 0.421429574489594
-0.0238500005230308 0.0572499968335032 0.00564999974519014 16 -0.24736724793911 0.112082794308662 0.296666890382767 0.402199387550354
-0.0210500004813075 0.0572499968335032 0.00564999974519014 16 -0.189099490642548 0.260715216398239 0.224451169371605 0.39256763458252
-0.0182500004395843 0.0572499968335032 0.00564999974519014 16 -0.106953576207161 0.348269611597061 0.128433719277382 0.386297821998596
-0.015450000397861 0.0572499968335032 0.00564999974519014 16 -0.0196681600064039 0.367047339677811 0.0288253724575043 0.368702441453934
-0.0126500003561378 0.0572499968335032 0.00564999974519014 16 0.0572457984089851 0.331429183483124 -0.0556606315076351 0.340911269187927
-0.0098500003144145 0.0572499968335032 0.00564999974519014 16 0.115067794919014 0.261504590511322 -0.118738755583763 0.309393167495728
-0.00705000027269125 0.0572499968335032 0.00564999974519014 16 0.153443858027458 0.181707248091698 -0.156245812773705 0.284561574459076
-0.004250000230968 0.0572499968335032 0.00564999974519014 16 0.176569804549217 0.102685682475567 -0.176369175314903 0.269865393638611
-0.00145000018924474 0.0572499968335032 0.00564999974519014 16 0.18944451212883 0.0298213716596365 -0.185186013579369 0.266594082117081
0.0013499998524785 0.0572499968335032 0.00564999974519014 16 0.194103345274925 -0.0458176769316196 -0.19337309896946 0.277792245149612
0.00414999989420176 0.0572499968335032 0.00564999974519014 16 0.186316207051277 -0.132217392325401 -0.195433989167213 0.300648659467697
0.006949999935925 0.0572499968335032 0.00564999974519014 16 0.159058526158333 -0.233343884348869 -0.184891238808632 0.337540745735168
0.00974999997764826 0.0572499968335032 0.00564999974519014 16 0.104968272149563 -0.334622025489807 -0.143694058060646 0.378996342420578
0.0125500000193715 0.0572499968335032 0.00564999974519014 16 0.0256538353860378 -0.408649832010269 -0.0698657929897308 0.41537219285965
0.0153500000610948 0.0572499968335032 0.00564999974519014 16 -0.0714871436357498 -0.423342019319534 0.0380704924464226 0.431019991636276
0.018150000102818 0.0572499968335032 0.00564999974519014 16 -0.167494565248489 -0.358062118291855 0.153873324394226 0.424193233251572
0.0209500001445413 0.0572499968335032 0.00564999974519014 16 -0.24069145321846 -0.218011975288391 0.252825111150742 0.411560595035553
0.0237500001862645 0.0572499968335032 0.00564999974519014 16 -0.271587878465652 -0.0295630879700184 0.303693324327469 0.408489406108856
0.0265500002279878 0.0572499968335032 0.00564999974519014 16 -0.254905670881271 0.161506354808807 0.301985889673233 0.426915317773819
0.029350000269711 0.0572499968335032 0.00564999974519014 16 -0.206286892294884 0.319123804569244 0.261892110109329 0.461499482393265
0.0321500003114343 0.0572499968335032 0.00564999974519014 16 -0.153482884168625 0.419091492891312 0.214519903063774 0.495190322399139
0.0349500003531575 0.0572499968335032 0.00564999974519014 16 -0.127197936177254 0.458686500787735 0.189857125282288 0.51246303319931
-0.0350500006899238 0.05444999679178 0.00564999974519014 16 -0.0920072570443153 -0.472775667905807 0.122704222798347 0.497029662132263
-0.0322500006482005 0.05444999679178 0.00564999974519014 16 -0.101367294788361 -0.412403523921967 0.139243021607399 0.446923494338989
-0.0294500006064773 0.05444999679178 0.00564999974519014 16 -0.119148746132851 -0.270027160644531 0.171715751290321 0.341463595628738
-0.026650000564754 0.05444999679178 0.00564999974519014 16 -0.127387329936028 -0.0744484513998032 0.187323048710823 0.238453418016434
-0.0238500005230308 0.05444999679178 0.00564999974519014 16 -0.119651161134243 0.128278329968452 0.178120046854019 0.249996960163116
-0.0210500004813075 0.05444999679178 0.00564999974519014 16 -0.0920286402106285 0.294258415699005 0.136926352977753 0.337351620197296
-0.0182500004395843 0.05444999679178 0.00564999974519014 16 -0.0520404689013958 0.390620201826096 0.0801414549350739 0.402138024568558
-0.015450000397861 0.05444999679178 0.00564999974519014 16 -0.00744884787127376 0.410926908254623 0.0181303676217794 0.411394119262695
-0.0126500003561378 0.05444999679178 0.00564999974519014 16 0.0323501080274582 0.369709342718124 -0.033758245408535 0.37265419960022
-0.0098500003144145 0.05444999679178 0.00564999974519014 16 0.0631586834788322 0.290589720010757 -0.0718836411833763 0.305938988924026
-0.00705000027269125 0.05444999679178 0.00564999974519014 16 0.0821634531021118 0.200526714324951 -0.0888397321105003 0.234209924936295
-0.004250000230968 0.05444999679178 0.00564999974519014 16 0.0930328592658043 0.11244560033083 -0.0944943726062775 0.173862919211388
-0.00145000018924474 0.05444999679178 0.00564999974519014 16 0.0978833362460136 0.0334749035537243 -0.0920714065432549 0.138487756252289
0.0013499998524785 0.05444999679178 0.00564999974519014 16 0.100383937358856 -0.0472938753664494 -0.0951859951019287 0.146198555827141
0.00414999989420176 0.05444999679178 0.00564999974519014 16 0.0978663936257362 -0.139449417591095 -0.0992224663496017 0.197152391076088
0.006949999935925 0.05444999679178 0.00564999974519014 16 0.0875896587967873 -0.250280767679214 -0.104074493050575 0.28485769033432
0.00974999997764826 0.05444999679178 0.00564999974519014 16 0.0636642575263977 -0.363762974739075 -0.0942397639155388 0.381126970052719
0.0125500000193715 0.05444999679178 0.00564999974519014 16 0.0264166295528412 -0.448944360017776 -0.0673837512731552 0.454741060733795
0.0153500000610948 0.05444999679178 0.00564999974519014 16 -0.0224886350333691 -0.467876732349396 -0.0137487649917603 0.468618601560593
0.018150000102818 0.05444999679178 0.00564999974519014 16 -0.0728806257247925 -0.397625684738159 0.0511981286108494 0.407478839159012
0.0209500001445413 0.05444999679178 0.00564999974519014 16 -0.112572632730007 -0.243708401918411 0.114361494779587 0.291796058416367
0.0237500001862645 0.05444999679178 0.00564999974519014 16 -0.131072819232941 -0.0369009971618652 0.152249604463577 0.204258933663368
0.0265500002279878 0.05444999679178 0.00564999974519014 16 -0.126134395599365 0.173447608947754 0.162095814943314 0.268828958272934
0.029350000269711 0.05444999679178 0.00564999974519014 16 -0.107098191976547 0.346341848373413 0.150607094168663 0.392562359571457
0.0321500003114343 0.05444999679178 0.00564999974519014 16 -0.0862791761755943 0.456058502197266 0.133748218417168 0.4830342233181
0.0349500003531575 0.05444999679178 0.00564999974519014 16 -0.0760419890284538 0.498220950365067 0.12488079816103 0.519231855869293
-0.0350500006899238 0.0516499967500567 0.00564999974519014 16 0.0183819979429245 -0.468321770429611 0.00827664136886597 0.468755453824997
-0.0322500006482005 0.0516499967500567 0.00564999974519014 16 0.0231141559779644 -0.407786965370178 0.0106914760544896 0.408581435680389
-0.0294500006064773 0.0516499967500567 0.00564999974519014 16 0.0291867274791002 -0.264924824237823 0.0206939540803432 0.26732987165451
-0.026650000564754 0.0516499967500567 0.00564999974519014 16 0.0342075638473034 -0.066935621201992 0.0275860298424959 0.0800719931721687
-0.0238500005230308 0.0516499967500567 0.00564999974519014 16 0.0329613052308559 0.137878805398941 0.0324698947370052 0.145434886217117
-0.0210500004813075 0.0516499967500567 0.00564999974519014 16 0.0279484614729881 0.307241976261139 0.0276255961507559 0.30974492430687
-0.0182500004395843 0.0516499967500567 0.00564999974519014 16 0.0198834203183651 0.405783623456955 0.0191301964223385 0.406720608472824
-0.015450000397861 0.0516499967500567 0.00564999974519014 16 0.0129568167030811 0.427796423435211 0.00711847795173526 0.428051769733429
-0.0126500003561378 0.0516499967500567 0.00564999974519014 16 0.00573631748557091 0.38581109046936 0.00130112993065268 0.385855942964554
-0.0098500003144145 0.0516499967500567 0.00564999974519014 16 0.000523372029419988 0.304482936859131 -4.20287324232049e-05 0.304483383893967
-0.00705000027269125 0.0516499967500567 0.00564999974519014 16 -0.00651950342580676 0.209987357258797 0.0104513186961412 0.210348337888718
-0.004250000230968 0.0516499967500567 0.00564999974519014 16 -0.0123435966670513 0.116318538784981 0.0223735831677914 0.119092166423798
-0.00145000018924474 0.0516499967500567 0.00564999974519014 16 -0.0180111359804869 0.0318655371665955 0.035448431968689 0.0509549304842949
0.0013499998524785 0.0516499967500567 0.00564999974519014 16 -0.0184205714613199 -0.0532796047627926 0.0356959961354733 0.0667250901460648
0.00414999989420176 0.0516499967500567 0.00564999974519014 16 -0.0139974690973759 -0.147904753684998 0.02498584613204 0.150652036070824
0.006949999935925 0.0516499967500567 0.00564999974519014 16 -0.00325066410005093 -0.260155528783798 -0.0011755065061152 0.260178476572037
0.00974999997764826 0.0516499967500567 0.00564999974519014 16 0.00987294781953096 -0.373810797929764 -0.0322467423975468 0.375328958034515
0.0125500000193715 0.0516499967500567 0.00564999974519014 16 0.023315878584981 -0.458302617073059 -0.0629806146025658 0.463196992874146
0.0153500000610948 0.0516499967500567 0.00564999974519014 16 0.0332281291484833 -0.475450277328491 -0.0776640474796295 0.482896238565445
0.018150000102818 0.0516499967500567 0.00564999974519014 16 0.0390009954571724 -0.404223144054413 -0.0772869884967804 0.413389295339584
0.0209500001445413 0.0516499967500567 0.00564999974519014 16 0.0416140109300613 -0.249635100364685 -0.062264122068882 0.260626614093781
0.0237500001862645 0.0516499967500567 0.00564999974519014 16 0.0400621928274632 -0.0436667911708355 -0.0441591031849384 0.0739039555191994
0.0265500002279878 0.0516499967500567 0.00564999974519014 16 0.032433807849884 0.167579159140587 -0.0231114514172077 0.172246530652046
0.029350000269711 0.0516499967500567 0.00564999974519014 16 0.0169977862387896 0.341726094484329 -0.000478782312711701 0.342148929834366
0.0321500003114343 0.0516499967500567 0.00564999974519014 16 -0.00032142733107321 0.454105377197266 0.0204027406871319 0.454563617706299
0.0349500003531575 0.0516499967500567 0.00564999974519014 16 -0.00981840770691633 0.497003585100174 0.0312494281679392 0.498081833124161
-0.0350500006899238 0.0488499967083335 0.00564999974519014 16 0.0994796305894852 -0.404135227203369 -0.0909540057182312 0.42602127790451
-0.0322500006482005 0.0488499967083335 0.00564999974519014 16 0.115711882710457 -0.348992377519608 -0.0985278785228729 0.38064768910408
-0.0294500006064773 0.0488499967083335 0.00564999974519014 16 0.143027186393738 -0.221680745482445 -0.108145527541637 0.285122036933899
-0.026650000564754 0.0488499967083335 0.00564999974519014 16 0.162208303809166 -0.0455570407211781 -0.110029630362988 0.201229959726334
-0.0238500005230308 0.0488499967083335 0.00564999974519014 16 0.15776364505291 0.135915175080299 -0.0952242463827133 0.228975906968117
-0.0210500004813075 0.0488499967083335 0.00564999974519014 16 0.129850491881371 0.287169426679611 -0.0681824311614037 0.322453528642654
-0.0182500004395843 0.0488499967083335 0.00564999974519014 16 0.0843681916594505 0.376290947198868 -0.0315585806965828 0.386922210454941
-0.015450000397861 0.0488499967083335 0.00564999974519014 16 0.0345758907496929 0.398572087287903 0.00516817206516862 0.400102376937866
-0.0126500003561378 0.0488499967083335 0.00564999974519014 16 -0.0135705880820751 0.362463146448135 0.0439811199903488 0.365373820066452
-0.0098500003144145 0.0488499967083335 0.00564999974519014 16 -0.0517943874001503 0.289045065641403 0.077614352107048 0.303732931613922
-0.00705000027269125 0.0488499967083335 0.00564999974519014 16 -0.0822548866271973 0.199677526950836 0.11112605035305 0.242870286107063
-0.004250000230968 0.0488499967083335 0.00564999974519014 16 -0.102232061326504 0.108340695500374 0.134855106472969 0.200935319066048
-0.00145000018924474 0.0488499967083335 0.00564999974519014 16 -0.11505800485611 0.0234864000231028 0.151077061891556 0.19134846329689
0.0013499998524785 0.0488499967083335 0.00564999974519014 16 -0.116162441670895 -0.0606155432760715 0.149538666009903 0.198820948600769
0.00414999989420176 0.0488499967083335 0.00564999974519014 16 -0.105222247540951 -0.149831369519234 0.130222484469414 0.224675446748734
0.006949999935925 0.0488499967083335 0.00564999974519014 16 -0.0777565017342567 -0.250088781118393 0.0864197462797165 0.275787681341171
0.00974999997764826 0.0488499967083335 0.00564999974519014 16 -0.0355358310043812 -0.347565591335297 0.0216641090810299 0.350048542022705
0.0125500000193715 0.0488499967083335 0.00564999974519014 16 0.0182362999767065 -0.417267113924026 -0.0563660264015198 0.421451717615128
0.0153500000610948 0.0488499967083335 0.00564999974519014 16 0.0757963061332703 -0.427527815103531 -0.129432842135429 0.453076124191284
0.018150000102818 0.0488499967083335 0.00564999974519014 16 0.128091081976891 -0.362974107265472 -0.185485392808914 0.427273154258728
0.0209500001445413 0.0488499967083335 0.00564999974519014 16 0.16633440554142 -0.227133691310883 -0.214328393340111 0.353826940059662
0.0237500001862645 0.0488499967083335 0.00564999974519014 16 0.179945692420006 -0.0483981184661388 -0.215886458754539 0.285183787345886
0.0265500002279878 0.0488499967083335 0.00564999974519014 16 0.163473680615425 0.137401387095451 -0.187719687819481 0.28432634472847
0.029350000269711 0.0488499967083335 0.00564999974519014 16 0.122012794017792 0.292148321866989 -0.138627678155899 0.345623195171356
0.0321500003114343 0.0488499967083335 0.00564999974519014 16 0.0759069323539734 0.394882529973984 -0.0878218933939934 0.411590546369553
0.0349500003531575 0.0488499967083335 0.00564999974519014 16 0.0518183931708336 0.43465381860733 -0.061338908970356 0.442008554935455
-0.0350500006899238 0.0460499966666102 0.00564999974519014 16 0.119126126170158 -0.299288064241409 -0.126415565609932 0.346042305231094
-0.0322500006482005 0.0460499966666102 0.00564999974519014 16 0.140114843845367 -0.255096554756165 -0.139276310801506 0.322651982307434
-0.0294500006064773 0.0460499966666102 0.00564999974519014 16 0.177098870277405 -0.154938980937004 -0.159652054309845 0.284356951713562
-0.026650000564754 0.0460499966666102 0.00564999974519014 16 0.205085128545761 -0.0175679232925177 -0.168142676353455 0.265782803297043
-0.0238500005230308 0.0460499966666102 0.00564999974519014 16 0.204389616847038 0.122997730970383 -0.152281746268272 0.283007562160492
-0.0210500004813075 0.0460499966666102 0.00564999974519014 16 0.172755524516106 0.24093009531498 -0.112907834351063 0.317238032817841
-0.0182500004395843 0.0460499966666102 0.00564999974519014 16 0.116172522306442 0.311762481927872 -0.0555026270449162 0.337301701307297
-0.015450000397861 0.0460499966666102 0.00564999974519014 16 0.0500155985355377 0.331592053174973 0.00692737428471446 0.335414439439774
-0.0126500003561378 0.0460499966666102 0.00564999974519014 16 -0.0158241018652916 0.304957896471024 0.0708375424146652 0.313476741313934
-0.0098500003144145 0.0460499966666102 0.00564999974519014 16 -0.070333793759346 0.246969506144524 0.125098377466202 0.285640299320221
-0.00705000027269125 0.0460499966666102 0.00564999974519014 16 -0.112543605268002 0.171830341219902 0.170904651284218 0.267208009958267
-0.004250000230968 0.0460499966666102 0.00564999974519014 16 -0.140118911862373 0.0908188149333 0.199768126010895 0.260362565517426
-0.00145000018924474 0.0460499966666102 0.00564999974519014 16 -0.156066581606865 0.0113910743966699 0.214191451668739 0.265263110399246
0.0013499998524785 0.0460499966666102 0.00564999974519014 16 -0.156894847750664 -0.0664762705564499 0.20788848400116 0.268798619508743
0.00414999989420176 0.0460499966666102 0.00564999974519014 16 -0.142596021294594 -0.14431793987751 0.180681884288788 0.271674871444702
0.006949999935925 0.0460499966666102 0.00564999974519014 16 -0.107991576194763 -0.223877668380737 0.126553997397423 0.278925269842148
0.00974999997764826 0.0460499966666102 0.00564999974519014 16 -0.0548045262694359 -0.295029193162918 0.0463990457355976 0.303642302751541
0.0125500000193715 0.0460499966666102 0.00564999974519014 16 0.0145300971344113 -0.341118723154068 -0.0519238710403442 0.345353722572327
0.0153500000610948 0.0460499966666102 0.00564999974519014 16 0.0907931104302406 -0.341876447200775 -0.150834679603577 0.384543895721436
0.018150000102818 0.0460499966666102 0.00564999974519014 16 0.1626316010952 -0.289315670728683 -0.234122723340988 0.406160116195679
0.0209500001445413 0.0460499966666102 0.00564999974519014 16 0.216352924704552 -0.185774073004723 -0.286861568689346 0.404487520456314
0.0237500001862645 0.0460499966666102 0.00564999974519014 16 0.237577572464943 -0.0513045489788055 -0.30268520116806 0.388192743062973
0.0265500002279878 0.0460499966666102 0.00564999974519014 16 0.219106003642082 0.0913871899247169 -0.276311188936234 0.36428964138031
0.029350000269711 0.0460499966666102 0.00564999974519014 16 0.168927147984505 0.213241294026375 -0.219475507736206 0.349539309740067
0.0321500003114343 0.0460499966666102 0.00564999974519014 16 0.11306232213974 0.297528445720673 -0.157785221934319 0.355249851942062
0.0349500003531575 0.0460499966666102 0.00564999974519014 16 0.0838718488812447 0.331229984760284 -0.125868082046509 0.36412987112999
-0.0350500006899238 0.043249996624887 0.00564999974519014 16 0.0935237929224968 -0.201115772128105 -0.113534413278103 0.249167248606682
-0.0322500006482005 0.043249996624887 0.00564999974519014 16 0.112348631024361 -0.167054608464241 -0.125257700681686 0.23710535466671
-0.0294500006064773 0.043249996624887 0.00564999974519014 16 0.147223383188248 -0.0923455655574799 -0.145348265767097 0.226558044552803
-0.026650000564754 0.043249996624887 0.00564999974519014 16 0.176255196332932 0.0083748260512948 -0.156245201826096 0.235687494277954
-0.0238500005230308 0.043249996624887 0.00564999974519014 16 0.180949032306671 0.109337031841278 -0.143945500254631 0.255768358707428
-0.0210500004813075 0.043249996624887 0.00564999974519014 16 0.157503038644791 0.193440601229668 -0.106993742287159 0.271429806947708
-0.0182500004395843 0.043249996624887 0.00564999974519014 16 0.10951255261898 0.243879035115242 -0.0493304133415222 0.271851927042007
-0.015450000397861 0.043249996624887 0.00564999974519014 16 0.0498460903763771 0.258372634649277 0.0157154053449631 0.263605803251266
-0.0126500003561378 0.043249996624887 0.00564999974519014 16 -0.0110910898074508 0.239149212837219 0.0816010907292366 0.252930998802185
-0.0098500003144145 0.043249996624887 0.00564999974519014 16 -0.0631210058927536 0.195506855845451 0.137226298451424 0.247059196233749
-0.00705000027269125 0.043249996624887 0.00564999974519014 16 -0.102690868079662 0.13598071038723 0.180769369006157 0.248422488570213
-0.004250000230968 0.043249996624887 0.00564999974519014 16 -0.128129377961159 0.0685766190290451 0.206095486879349 0.252180963754654
-0.00145000018924474 0.043249996624887 0.00564999974519014 16 -0.140922516584396 -0.000124221071018837 0.214507400989532 0.256656557321548
0.0013499998524785 0.043249996624887 0.00564999974519014 16 -0.139699786901474 -0.066767081618309 0.20334367454052 0.255582720041275
0.00414999989420176 0.043249996624887 0.00564999974519014 16 -0.125483557581902 -0.129559680819511 0.173105210065842 0.249994501471519
0.006949999935925 0.043249996624887 0.00564999974519014 16 -0.0938524082303047 -0.187365159392357 0.119404435157776 0.24118746817112
0.00974999997764826 0.043249996624887 0.00564999974519014 16 -0.0465692393481731 -0.234056606888771 0.0433263070881367 0.242545574903488
0.0125500000193715 0.043249996624887 0.00564999974519014 16 0.0161775127053261 -0.260231792926788 -0.0496726743876934 0.265423566102982
0.0153500000610948 0.043249996624887 0.00564999974519014 16 0.0855758413672447 -0.255696654319763 -0.143823191523552 0.305596351623535
0.018150000102818 0.043249996624887 0.00564999974519014 16 0.152304902672768 -0.216976076364517 -0.225932016968727 0.348311185836792
0.0209500001445413 0.043249996624887 0.00564999974519014 16 0.202543377876282 -0.146136417984962 -0.281088352203369 0.376019060611725
0.0237500001862645 0.043249996624887 0.00564999974519014 16 0.223259434103966 -0.0545192286372185 -0.302368313074112 0.379794299602509
0.0265500002279878 0.043249996624887 0.00564999974519014 16 0.207817733287811 0.0450425893068314 -0.282890021800995 0.353898018598557
0.029350000269711 0.043249996624887 0.00564999974519014 16 0.163271114230156 0.133598104119301 -0.233711048960686 0.314844042062759
0.0321500003114343 0.043249996624887 0.00564999974519014 16 0.113580115139484 0.197769314050674 -0.177720934152603 0.289132982492447
0.0349500003531575 0.043249996624887 0.00564999974519014 16 0.0875527113676071 0.224563106894493 -0.148957252502441 0.283341377973557
-0.0350500006899238 0.0404499965831637 0.00564999974519014 16 0.0511780679225922 -0.127156913280487 -0.0743268132209778 0.155924826860428
-0.0322500006482005 0.0404499965831637 0.00564999974519014 16 0.0643960908055305 -0.101152427494526 -0.0820982605218887 0.145323067903519
-0.0294500006064773 0.0404499965831637 0.00564999974519014 16 0.0897120162844658 -0.0455277860164642 -0.0953062176704407 0.138579577207565
-0.026650000564754 0.0404499965831637 0.00564999974519014 16 0.113029673695564 0.0275927111506462 -0.10418938845396 0.156180962920189
-0.0238500005230308 0.0404499965831637 0.00564999974519014 16 0.120510429143906 0.0982772633433342 -0.096434086561203 0.182977378368378
-0.0210500004813075 0.0404499965831637 0.00564999974519014 16 0.108379207551479 0.155996039509773 -0.0701608657836914 0.202492862939835
-0.0182500004395843 0.0404499965831637 0.00564999974519014 16 0.0770645663142204 0.189834073185921 -0.0258230641484261 0.206501215696335
-0.015450000397861 0.0404499965831637 0.00564999974519014 16 0.0353144183754921 0.198850959539413 0.026049192994833 0.203635394573212
-0.0126500003561378 0.0404499965831637 0.00564999974519014 16 -0.00806462205946445 0.183862283825874 0.0781514346599579 0.199945062398911
-0.0098500003144145 0.0404499965831637 0.00564999974519014 16 -0.0454435423016548 0.150036960840225 0.122060269117355 0.198682948946953
-0.00705000027269125 0.0404499965831637 0.00564999974519014 16 -0.0728439167141914 0.102829247713089 0.154380351305008 0.199282169342041
-0.004250000230968 0.0404499965831637 0.00564999974519014 16 -0.0901578962802887 0.047550555318594 0.17231422662735 0.200204133987427
-0.00145000018924474 0.0404499965831637 0.00564999974519014 16 -0.097579725086689 -0.00948379561305046 0.174910545349121 0.200512960553169
0.0013499998524785 0.0404499965831637 0.00564999974519014 16 -0.0949787646532059 -0.0641096904873848 0.161723062396049 0.19820536673069
0.00414999989420176 0.0404499965831637 0.00564999974519014 16 -0.0834400355815887 -0.112742386758327 0.133325099945068 0.193516582250595
0.006949999935925 0.0404499965831637 0.00564999974519014 16 -0.0599221587181091 -0.153598353266716 0.0878009796142578 0.186794355511665
0.00974999997764826 0.0404499965831637 0.00564999974519014 16 -0.025774173438549 -0.183185711503029 0.0273993015289307 0.187008112668991
0.0125500000193715 0.0404499965831637 0.00564999974519014 16 0.0203972030431032 -0.196600750088692 -0.0452032387256622 0.20275904238224
0.0153500000610948 0.0404499965831637 0.00564999974519014 16 0.0719460472464561 -0.19026954472065 -0.118527956306934 0.235430687665939
0.018150000102818 0.0404499965831637 0.00564999974519014 16 0.122290879487991 -0.162992537021637 -0.18470723927021 0.275024354457855
0.0209500001445413 0.0404499965831637 0.00564999974519014 16 0.160357147455215 -0.117241084575653 -0.231590136885643 0.305112898349762
0.0237500001862645 0.0404499965831637 0.00564999974519014 16 0.176249623298645 -0.0577362403273582 -0.253030121326447 0.313722223043442
0.0265500002279878 0.0404499965831637 0.00564999974519014 16 0.16527496278286 0.00851977430284023 -0.24184487760067 0.293048352003098
0.029350000269711 0.0404499965831637 0.00564999974519014 16 0.132158726453781 0.0705475136637688 -0.206658571958542 0.255246251821518
0.0321500003114343 0.0404499965831637 0.00564999974519014 16 0.095424696803093 0.117331333458424 -0.16470792889595 0.223609521985054
0.0349500003531575 0.0404499965831637 0.00564999974519014 16 0.0760334581136703 0.137618765234947 -0.14358688890934 0.212925359606743
-0.0350500006899238 0.0376499965414405 0.00564999974519014 16 0.020325630903244 -0.0833270996809006 -0.0352860353887081 0.0927450358867645
-0.0322500006482005 0.0376499965414405 0.00564999974519014 16 0.0274017807096243 -0.0621850416064262 -0.0387143716216087 0.0782089456915855
-0.0294500006064773 0.0376499965414405 0.00564999974519014 16 0.0412910617887974 -0.0176796112209558 -0.0444705039262772 0.063207171857357
-0.026650000564754 0.0376499965414405 0.00564999974519014 16 0.0554670467972755 0.0391152948141098 -0.0495689883828163 0.0840457305312157
-0.0238500005230308 0.0376499965414405 0.00564999974519014 16 0.0609944611787796 0.092035137116909 -0.0449179299175739 0.11919904500246
-0.0210500004813075 0.0376499965414405 0.00564999974519014 16 0.0551233068108559 0.133839815855026 -0.0278746392577887 0.147406473755836
-0.0182500004395843 0.0376499965414405 0.00564999974519014 16 0.0365214832127094 0.157086446881294 0.00292184855788946 0.161302521824837
-0.015450000397861 0.0376499965414405 0.00564999974519014 16 0.0109001295641065 0.161400377750397 0.0397780388593674 0.166586875915527
-0.0126500003561378 0.0376499965414405 0.00564999974519014 16 -0.0150864105671644 0.146861612796783 0.0753268003463745 0.165740951895714
-0.0098500003144145 0.0376499965414405 0.00564999974519014 16 -0.036458246409893 0.11691814661026 0.103880077600479 0.160593047738075
-0.00705000027269125 0.0376499965414405 0.00564999974519014 16 -0.0499240010976791 0.0764953792095184 0.121735580265522 0.152195602655411
-0.004250000230968 0.0376499965414405 0.00564999974519014 16 -0.0570167489349842 0.0299903582781553 0.129757538437843 0.144870117306709